                               Psi4 1.4rc3

  ==> Input File <==

--------------------------------------------------------------------------
# PSI4 file produced by CrystaLattE

# Generated from:               acetic_acid.xyz
# Psithon input for N-mer:      2mer-0+305
# Number of atoms per monomer:  [8, 8]
# Number of replicas:           2
# COM priority:                 1.654709336454e-05
# Minimum COM separations:      20.766
# Separation priority:          2.779415735842e-05
# Minimum monomer separations:  17.470
# Cutoff priority:              8.419210136743e-07
# Nuclear repulsion energy:     269.71271042349184

memory 7 GB

molecule Dimer_0_305 {
  O           -5.53102237       2.93940290       1.97762624
  O           -2.40708886       0.90817734       0.04905909
  H           -0.50304887       1.37579205       4.63880908
  H            0.00000000       4.25104285       3.09072238
  H           -2.38948215       4.01916779       5.40195041
  H           -3.74771411       0.47147930      -1.21557512
  C           -1.41859782       2.98500500       3.84405190
  C           -3.32263781       2.28628814       1.91221413
--
  O           19.76730551     -16.38351916     -25.27742123
  O           16.64337200     -18.41474473     -27.20598839
  H           14.73933201     -17.94713001     -22.61623840
  H           14.23628314     -15.07187921     -24.16432509
  H           16.62576529     -15.30375427     -21.85309707
  H           17.98399725     -18.85144277     -28.47062259
  C           15.65488096     -16.33791706     -23.41099558
  C           17.55892095     -17.03663393     -25.34283335
units = au
no_com
no_reorient
}

set {
  e_convergence 10
  d_convergence 10
  scf_type df
  mp2_type df
  cc_type df
  freeze_core true
}

energy('sapt0/aug-cc-pvdz')

--------------------------------------------------------------------------

  //              Dimer HF             //
    Molecular point group: c1
  Charge       = 0
  Multiplicity = 1
  Basis Set: AUG-CC-PVDZ
    Blend: AUG-CC-PVDZ
  Basis Set: (AUG-CC-PVDZ AUX)
    Blend: AUG-CC-PVDZ-JKFIT
  @DF-RHF Final Energy:  -455.68816728698249
    Total Energy =                       -455.6881672869824911
  //            Monomer A HF           //
    Molecular point group: c1
  Multiplicity = 1
  Basis Set: AUG-CC-PVDZ
    Blend: AUG-CC-PVDZ
  Basis Set: (AUG-CC-PVDZ AUX)
    Blend: AUG-CC-PVDZ-JKFIT
  @DF-RHF Final Energy:  -227.84408589638127
    Total Energy =                       -227.8440858963812730
  //            Monomer B HF           //
    Molecular point group: c1

    Geometry (in Bohr), charge = 0, multiplicity = 1:

       Center              X                  Y                   Z               Mass
    ------------   -----------------  -----------------  -----------------  -----------------
      Gh(O)          -5.531022370000     2.939402900000     1.977626240000    15.994914619570
      Gh(O)          -2.407088860000     0.908177340000     0.049059090000    15.994914619570
      Gh(H)          -0.503048870000     1.375792050000     4.638809080000     1.007825032230
      Gh(H)           0.000000000000     4.251042850000     3.090722380000     1.007825032230
      Gh(H)          -2.389482150000     4.019167790000     5.401950410000     1.007825032230
      Gh(H)          -3.747714110000     0.471479300000    -1.215575120000     1.007825032230
      Gh(C)          -1.418597820000     2.985005000000     3.844051900000    12.000000000000
      Gh(C)          -3.322637810000     2.286288140000     1.912214130000    12.000000000000
         O           19.767305510000   -16.383519160000   -25.277421230000    15.994914619570
         O           16.643372000000   -18.414744730000   -27.205988390000    15.994914619570
         H           14.739332010000   -17.947130010000   -22.616238400000     1.007825032230
         H           14.236283140000   -15.071879210000   -24.164325090000     1.007825032230
         H           16.625765290000   -15.303754270000   -21.853097070000     1.007825032230
         H           17.983997250000   -18.851442770000   -28.470622590000     1.007825032230
         C           15.654880960000   -16.337917060000   -23.410995580000    12.000000000000
         C           17.558920950000   -17.036633930000   -25.342833350000    12.000000000000

  Charge       = 0
  Multiplicity = 1
  Basis Set: AUG-CC-PVDZ
    Blend: AUG-CC-PVDZ
  Basis Set: (AUG-CC-PVDZ AUX)
    Blend: AUG-CC-PVDZ-JKFIT

    Orbital Energies [Eh]
    ---------------------

    Doubly Occupied:

       1A    -20.629476     2A    -20.552804     3A    -11.396108
       4A    -11.250979     5A     -1.475853     6A     -1.357486
       7A     -1.032999     8A     -0.837930     9A     -0.703065
      10A     -0.688465    11A     -0.657749    12A     -0.576538
      13A     -0.569697    14A     -0.561403    15A     -0.475343
      16A     -0.452434

  @DF-RHF Final Energy:  -227.84408589493970

   => Energetics <=

    Nuclear Repulsion Energy =            121.7484301536834153
    One-Electron Energy =                -552.7483713153801546
    Two-Electron Energy =                 203.1558552667570154
    Total Energy =                       -227.8440858949396954

  Dipole Moment: [D]
     X:    -2.1048      Y:    -0.7191      Z:    -0.2116     Total:     2.2342

    SAPT Results
  --------------------------------------------------------------------------------------------------------
    Electrostatics                  0.00453436 [mEh]       0.00284535 [kcal/mol]       0.01190496 [kJ/mol]
      Elst10,r                      0.00453436 [mEh]       0.00284535 [kcal/mol]       0.01190496 [kJ/mol]

    Exchange                       -0.00000000 [mEh]      -0.00000000 [kcal/mol]      -0.00000000 [kJ/mol]
      Exch10                       -0.00000000 [mEh]      -0.00000000 [kcal/mol]      -0.00000000 [kJ/mol]
      Exch10(S^2)                  -0.00000000 [mEh]      -0.00000000 [kcal/mol]      -0.00000000 [kJ/mol]

    Induction                      -0.00003002 [mEh]      -0.00001884 [kcal/mol]      -0.00007882 [kJ/mol]
      Ind20,r                      -0.00001271 [mEh]      -0.00000797 [kcal/mol]      -0.00003337 [kJ/mol]
      Exch-Ind20,r                  0.00000000 [mEh]       0.00000000 [kcal/mol]       0.00000000 [kJ/mol]
      delta HF,r (2)               -0.00001731 [mEh]      -0.00001086 [kcal/mol]      -0.00004545 [kJ/mol]

    Dispersion                     -0.00018069 [mEh]      -0.00011339 [kcal/mol]      -0.00047441 [kJ/mol]
      Disp20                       -0.00018069 [mEh]      -0.00011339 [kcal/mol]      -0.00047441 [kJ/mol]
      Exch-Disp20                   0.00000000 [mEh]       0.00000000 [kcal/mol]       0.00000000 [kJ/mol]
      Disp20 (SS)                  -0.00009035 [mEh]      -0.00005669 [kcal/mol]      -0.00023720 [kJ/mol]
      Disp20 (OS)                  -0.00009035 [mEh]      -0.00005669 [kcal/mol]      -0.00023720 [kJ/mol]
      Exch-Disp20 (SS)              0.00000000 [mEh]       0.00000000 [kcal/mol]       0.00000000 [kJ/mol]
      Exch-Disp20 (OS)              0.00000000 [mEh]       0.00000000 [kcal/mol]       0.00000000 [kJ/mol]

  Total HF                          0.00450434 [mEh]       0.00282652 [kcal/mol]       0.01182614 [kJ/mol]
  Total SAPT0                       0.00432365 [mEh]       0.00271313 [kcal/mol]       0.01135173 [kJ/mol]

  Special recipe for scaled SAPT0 (see Manual):
    Electrostatics sSAPT0           0.00453436 [mEh]       0.00284535 [kcal/mol]       0.01190496 [kJ/mol]
    Exchange sSAPT0                -0.00000000 [mEh]      -0.00000000 [kcal/mol]      -0.00000000 [kJ/mol]
    Induction sSAPT0               -0.00003002 [mEh]      -0.00001884 [kcal/mol]      -0.00007882 [kJ/mol]
    Dispersion sSAPT0              -0.00018069 [mEh]      -0.00011339 [kcal/mol]      -0.00047441 [kJ/mol]
  Total sSAPT0                      0.00432365 [mEh]       0.00271313 [kcal/mol]       0.01135173 [kJ/mol]
  --------------------------------------------------------------------------------------------------------

*** Psi4 exiting successfully. Buy a developer a beer!
