                               Psi4 1.4rc3

  ==> Input File <==

--------------------------------------------------------------------------
# PSI4 file produced by CrystaLattE

# Generated from:               acetic_acid.xyz
# Psithon input for N-mer:      2mer-0+113
# Number of atoms per monomer:  [8, 8]
# Number of replicas:           2
# COM priority:                 6.267069970745e-05
# Minimum COM separations:      13.322
# Separation priority:          1.552511175514e-04
# Minimum monomer separations:  9.846
# Cutoff priority:              8.344102814524e-06
# Nuclear repulsion energy:     284.3867217312867

memory 7 GB

molecule Dimer_0_113 {
  O           -5.53102237       2.93940290       1.97762624
  O           -2.40708886       0.90817734       0.04905909
  H           -0.50304887       1.37579205       4.63880908
  H            0.00000000       4.25104285       3.09072238
  H           -2.38948215       4.01916779       5.40195041
  H           -3.74771411       0.47147930      -1.21557512
  C           -1.41859782       2.98500500       3.84405190
  C           -3.32263781       2.28628814       1.91221413
--
  O          -18.10724422       1.07976488     -19.82641174
  O          -14.98331071       3.11099045     -21.75497890
  H          -13.07927073       2.64337574     -17.16522890
  H          -12.57622185      -0.23187506     -18.71331560
  H          -14.96570400       0.00000000     -16.40208757
  H          -16.32393596       3.54768849     -23.01961310
  C          -13.99481968       1.03416279     -17.95998608
  C          -15.89885966       1.73287965     -19.89182385
units = au
no_com
no_reorient
}

set {
  e_convergence 10
  d_convergence 10
  scf_type df
  mp2_type df
  cc_type df
  freeze_core true
}

energy('sapt0/aug-cc-pvdz')

--------------------------------------------------------------------------

  //              Dimer HF             //
    Molecular point group: c1
  Charge       = 0
  Multiplicity = 1
  Basis Set: AUG-CC-PVDZ
    Blend: AUG-CC-PVDZ
  Basis Set: (AUG-CC-PVDZ AUX)
    Blend: AUG-CC-PVDZ-JKFIT
  @DF-RHF Final Energy:  -455.68813363309675
    Total Energy =                       -455.6881336330967542
  //            Monomer A HF           //
    Molecular point group: c1
  Multiplicity = 1
  Basis Set: AUG-CC-PVDZ
    Blend: AUG-CC-PVDZ
  Basis Set: (AUG-CC-PVDZ AUX)
    Blend: AUG-CC-PVDZ-JKFIT
  @DF-RHF Final Energy:  -227.84408594411113
    Total Energy =                       -227.8440859441111286
  //            Monomer B HF           //
    Molecular point group: c1

    Geometry (in Bohr), charge = 0, multiplicity = 1:

       Center              X                  Y                   Z               Mass
    ------------   -----------------  -----------------  -----------------  -----------------
      Gh(O)          -5.531022370000     2.939402900000     1.977626240000    15.994914619570
      Gh(O)          -2.407088860000     0.908177340000     0.049059090000    15.994914619570
      Gh(H)          -0.503048870000     1.375792050000     4.638809080000     1.007825032230
      Gh(H)           0.000000000000     4.251042850000     3.090722380000     1.007825032230
      Gh(H)          -2.389482150000     4.019167790000     5.401950410000     1.007825032230
      Gh(H)          -3.747714110000     0.471479300000    -1.215575120000     1.007825032230
      Gh(C)          -1.418597820000     2.985005000000     3.844051900000    12.000000000000
      Gh(C)          -3.322637810000     2.286288140000     1.912214130000    12.000000000000
         O          -18.107244220000     1.079764880000   -19.826411740000    15.994914619570
         O          -14.983310710000     3.110990450000   -21.754978900000    15.994914619570
         H          -13.079270730000     2.643375740000   -17.165228900000     1.007825032230
         H          -12.576221850000    -0.231875060000   -18.713315600000     1.007825032230
         H          -14.965704000000     0.000000000000   -16.402087570000     1.007825032230
         H          -16.323935960000     3.547688490000   -23.019613100000     1.007825032230
         C          -13.994819680000     1.034162790000   -17.959986080000    12.000000000000
         C          -15.898859660000     1.732879650000   -19.891823850000    12.000000000000

  Charge       = 0
  Multiplicity = 1
  Basis Set: AUG-CC-PVDZ
    Blend: AUG-CC-PVDZ
  Basis Set: (AUG-CC-PVDZ AUX)
    Blend: AUG-CC-PVDZ-JKFIT

    Orbital Energies [Eh]
    ---------------------

    Doubly Occupied:

       1A    -20.629476     2A    -20.552804     3A    -11.396108
       4A    -11.250979     5A     -1.475853     6A     -1.357486
       7A     -1.032999     8A     -0.837930     9A     -0.703065
      10A     -0.688465    11A     -0.657749    12A     -0.576538
      13A     -0.569697    14A     -0.561403    15A     -0.475343
      16A     -0.452434

  @DF-RHF Final Energy:  -227.84408596066140

   => Energetics <=

    Nuclear Repulsion Energy =            121.7484301405466596
    One-Electron Energy =                -552.7483717794485756
    Two-Electron Energy =                 203.1558556782405276
    Total Energy =                       -227.8440859606614026

  Dipole Moment: [D]
     X:     2.1048      Y:     0.7191      Z:    -0.2116     Total:     2.2342

    SAPT Results
  --------------------------------------------------------------------------------------------------------
    Electrostatics                  0.03850023 [mEh]       0.02415926 [kcal/mol]       0.10108234 [kJ/mol]
      Elst10,r                      0.03850023 [mEh]       0.02415926 [kcal/mol]       0.10108234 [kJ/mol]

    Exchange                        0.00000004 [mEh]       0.00000002 [kcal/mol]       0.00000010 [kJ/mol]
      Exch10                        0.00000004 [mEh]       0.00000002 [kcal/mol]       0.00000010 [kJ/mol]
      Exch10(S^2)                   0.00000004 [mEh]       0.00000002 [kcal/mol]       0.00000010 [kJ/mol]

    Induction                      -0.00022859 [mEh]      -0.00014344 [kcal/mol]      -0.00060017 [kJ/mol]
      Ind20,r                      -0.00021005 [mEh]      -0.00013181 [kcal/mol]      -0.00055150 [kJ/mol]
      Exch-Ind20,r                  0.00000009 [mEh]       0.00000006 [kcal/mol]       0.00000024 [kJ/mol]
      delta HF,r (2)               -0.00001863 [mEh]      -0.00001169 [kcal/mol]      -0.00004891 [kJ/mol]

    Dispersion                     -0.00279889 [mEh]      -0.00175633 [kcal/mol]      -0.00734848 [kJ/mol]
      Disp20                       -0.00279890 [mEh]      -0.00175633 [kcal/mol]      -0.00734850 [kJ/mol]
      Exch-Disp20                   0.00000001 [mEh]       0.00000000 [kcal/mol]       0.00000002 [kJ/mol]
      Disp20 (SS)                  -0.00139945 [mEh]      -0.00087817 [kcal/mol]      -0.00367425 [kJ/mol]
      Disp20 (OS)                  -0.00139945 [mEh]      -0.00087817 [kcal/mol]      -0.00367425 [kJ/mol]
      Exch-Disp20 (SS)              0.00000001 [mEh]       0.00000000 [kcal/mol]       0.00000002 [kJ/mol]
      Exch-Disp20 (OS)              0.00000000 [mEh]       0.00000000 [kcal/mol]       0.00000000 [kJ/mol]

  Total HF                          0.03827168 [mEh]       0.02401584 [kcal/mol]       0.10048227 [kJ/mol]
  Total SAPT0                       0.03547279 [mEh]       0.02225951 [kcal/mol]       0.09313379 [kJ/mol]

  Special recipe for scaled SAPT0 (see Manual):
    Electrostatics sSAPT0           0.03850023 [mEh]       0.02415926 [kcal/mol]       0.10108234 [kJ/mol]
    Exchange sSAPT0                 0.00000004 [mEh]       0.00000002 [kcal/mol]       0.00000010 [kJ/mol]
    Induction sSAPT0               -0.00022859 [mEh]      -0.00014344 [kcal/mol]      -0.00060017 [kJ/mol]
    Dispersion sSAPT0              -0.00279889 [mEh]      -0.00175633 [kcal/mol]      -0.00734848 [kJ/mol]
  Total sSAPT0                      0.03547279 [mEh]       0.02225951 [kcal/mol]       0.09313379 [kJ/mol]
  --------------------------------------------------------------------------------------------------------

*** Psi4 exiting successfully. Buy a developer a beer!
