                               Psi4 1.4rc3

  ==> Input File <==

--------------------------------------------------------------------------
# PSI4 file produced by CrystaLattE

# Generated from:               acetic_acid.xyz
# Psithon input for N-mer:      2mer-0+32
# Number of atoms per monomer:  [8, 8]
# Number of replicas:           2
# COM priority:                 2.166230920967e-04
# Minimum COM separations:      8.811
# Separation priority:          7.874066150453e-04
# Minimum monomer separations:  5.731
# Cutoff priority:              7.271077025612e-05
# Nuclear repulsion energy:     305.8308789237266

memory 7 GB

molecule Dimer_0_32 {
  O           -5.53102237       2.93940290       1.97762624
  O           -2.40708886       0.90817734       0.04905909
  H           -0.50304887       1.37579205       4.63880908
  H            0.00000000       4.25104285       3.09072238
  H           -2.38948215       4.01916779       5.40195041
  H           -3.74771411       0.47147930      -1.21557512
  C           -1.41859782       2.98500500       3.84405190
  C           -3.32263781       2.28628814       1.91221413
--
  O            7.04519948       1.07976488      12.87964524
  O           10.16913299       3.11099045      10.95107808
  H           12.07317298       2.64337574      15.54082807
  H           12.57622185      -0.23187506      13.99274137
  H           10.18673970       0.00000000      16.30396940
  H            8.82850774       3.54768849       9.68644387
  C           11.15762403       1.03416279      14.74607089
  C            9.25358404       1.73287965      12.81423312
units = au
no_com
no_reorient
}

set {
  e_convergence 10
  d_convergence 10
  scf_type df
  mp2_type df
  cc_type df
  freeze_core true
}

energy('sapt0/aug-cc-pvdz')

--------------------------------------------------------------------------

  //              Dimer HF             //
    Molecular point group: c1
  Charge       = 0
  Multiplicity = 1
  Basis Set: AUG-CC-PVDZ
    Blend: AUG-CC-PVDZ
  Basis Set: (AUG-CC-PVDZ AUX)
    Blend: AUG-CC-PVDZ-JKFIT
  @DF-RHF Final Energy:  -455.68826648934777
    Total Energy =                       -455.6882664893477681
  //            Monomer A HF           //
    Molecular point group: c1
  Multiplicity = 1
  Basis Set: AUG-CC-PVDZ
    Blend: AUG-CC-PVDZ
  Basis Set: (AUG-CC-PVDZ AUX)
    Blend: AUG-CC-PVDZ-JKFIT
  @DF-RHF Final Energy:  -227.84409226491383
    Total Energy =                       -227.8440922649138258
  //            Monomer B HF           //
    Molecular point group: c1

    Geometry (in Bohr), charge = 0, multiplicity = 1:

       Center              X                  Y                   Z               Mass
    ------------   -----------------  -----------------  -----------------  -----------------
      Gh(O)          -5.531022370000     2.939402900000     1.977626240000    15.994914619570
      Gh(O)          -2.407088860000     0.908177340000     0.049059090000    15.994914619570
      Gh(H)          -0.503048870000     1.375792050000     4.638809080000     1.007825032230
      Gh(H)           0.000000000000     4.251042850000     3.090722380000     1.007825032230
      Gh(H)          -2.389482150000     4.019167790000     5.401950410000     1.007825032230
      Gh(H)          -3.747714110000     0.471479300000    -1.215575120000     1.007825032230
      Gh(C)          -1.418597820000     2.985005000000     3.844051900000    12.000000000000
      Gh(C)          -3.322637810000     2.286288140000     1.912214130000    12.000000000000
         O            7.045199480000     1.079764880000    12.879645240000    15.994914619570
         O           10.169132990000     3.110990450000    10.951078080000    15.994914619570
         H           12.073172980000     2.643375740000    15.540828070000     1.007825032230
         H           12.576221850000    -0.231875060000    13.992741370000     1.007825032230
         H           10.186739700000     0.000000000000    16.303969400000     1.007825032230
         H            8.828507740000     3.547688490000     9.686443870000     1.007825032230
         C           11.157624030000     1.034162790000    14.746070890000    12.000000000000
         C            9.253584040000     1.732879650000    12.814233120000    12.000000000000

  Charge       = 0
  Multiplicity = 1
  Basis Set: AUG-CC-PVDZ
    Blend: AUG-CC-PVDZ
  Basis Set: (AUG-CC-PVDZ AUX)
    Blend: AUG-CC-PVDZ-JKFIT

    Orbital Energies [Eh]
    ---------------------

    Doubly Occupied:

       1A    -20.629485     2A    -20.552808     3A    -11.396115
       4A    -11.250979     5A     -1.475853     6A     -1.357488
       7A     -1.033000     8A     -0.837931     9A     -0.703065
      10A     -0.688466    11A     -0.657749    12A     -0.576538
      13A     -0.569697    14A     -0.561405    15A     -0.475344
      16A     -0.452435

  @DF-RHF Final Energy:  -227.84409736093681

   => Energetics <=

    Nuclear Repulsion Energy =            121.7484301578906383
    One-Electron Energy =                -552.7483437491125642
    Two-Electron Energy =                 203.1558162302850974
    Total Energy =                       -227.8440973609368143

  Dipole Moment: [D]
     X:     2.1045      Y:     0.7191      Z:    -0.2118     Total:     2.2340

    SAPT Results
  --------------------------------------------------------------------------------------------------------
    Electrostatics                 -0.07013519 [mEh]      -0.04401049 [kcal/mol]      -0.18413991 [kJ/mol]
      Elst10,r                     -0.07013519 [mEh]      -0.04401049 [kcal/mol]      -0.18413991 [kJ/mol]

    Exchange                        0.00003946 [mEh]       0.00002476 [kcal/mol]       0.00010361 [kJ/mol]
      Exch10                        0.00003946 [mEh]       0.00002476 [kcal/mol]       0.00010361 [kJ/mol]
      Exch10(S^2)                   0.00003946 [mEh]       0.00002476 [kcal/mol]       0.00010361 [kJ/mol]

    Induction                      -0.00676777 [mEh]      -0.00424684 [kcal/mol]      -0.01776878 [kJ/mol]
      Ind20,r                      -0.00672046 [mEh]      -0.00421715 [kcal/mol]      -0.01764456 [kJ/mol]
      Exch-Ind20,r                  0.00002930 [mEh]       0.00001838 [kcal/mol]       0.00007692 [kJ/mol]
      delta HF,r (2)               -0.00007661 [mEh]      -0.00004808 [kcal/mol]      -0.00020115 [kJ/mol]

    Dispersion                     -0.04859161 [mEh]      -0.03049170 [kcal/mol]      -0.12757726 [kJ/mol]
      Disp20                       -0.04859738 [mEh]      -0.03049532 [kcal/mol]      -0.12759241 [kJ/mol]
      Exch-Disp20                   0.00000577 [mEh]       0.00000362 [kcal/mol]       0.00001516 [kJ/mol]
      Disp20 (SS)                  -0.02429869 [mEh]      -0.01524766 [kcal/mol]      -0.06379621 [kJ/mol]
      Disp20 (OS)                  -0.02429869 [mEh]      -0.01524766 [kcal/mol]      -0.06379621 [kJ/mol]
      Exch-Disp20 (SS)              0.00000461 [mEh]       0.00000289 [kcal/mol]       0.00001210 [kJ/mol]
      Exch-Disp20 (OS)              0.00000116 [mEh]       0.00000073 [kcal/mol]       0.00000305 [kJ/mol]

  Total HF                         -0.07686350 [mEh]      -0.04823257 [kcal/mol]      -0.20180508 [kJ/mol]
  Total SAPT0                      -0.12545511 [mEh]      -0.07872427 [kcal/mol]      -0.32938234 [kJ/mol]

  Special recipe for scaled SAPT0 (see Manual):
    Electrostatics sSAPT0          -0.07013519 [mEh]      -0.04401049 [kcal/mol]      -0.18413991 [kJ/mol]
    Exchange sSAPT0                 0.00003946 [mEh]       0.00002476 [kcal/mol]       0.00010361 [kJ/mol]
    Induction sSAPT0               -0.00676777 [mEh]      -0.00424684 [kcal/mol]      -0.01776878 [kJ/mol]
    Dispersion sSAPT0              -0.04859161 [mEh]      -0.03049170 [kcal/mol]      -0.12757726 [kJ/mol]
  Total sSAPT0                     -0.12545511 [mEh]      -0.07872427 [kcal/mol]      -0.32938234 [kJ/mol]
  --------------------------------------------------------------------------------------------------------

*** Psi4 exiting successfully. Buy a developer a beer!
