                               Psi4 1.4rc3

  ==> Input File <==

--------------------------------------------------------------------------
# PSI4 file produced by CrystaLattE

# Generated from:               acetic_acid.xyz
# Psithon input for N-mer:      2mer-0+28
# Number of atoms per monomer:  [8, 8]
# Number of replicas:           2
# COM priority:                 1.477452761671e-04
# Minimum COM separations:      10.010
# Separation priority:          4.846912482885e-04
# Minimum monomer separations:  6.737
# Cutoff priority:              3.807327514901e-05
# Nuclear repulsion energy:     297.91724343820385

memory 7 GB

molecule Dimer_0_28 {
  O           -5.53102237       2.93940290       1.97762624
  O           -2.40708886       0.90817734       0.04905909
  H           -0.50304887       1.37579205       4.63880908
  H            0.00000000       4.25104285       3.09072238
  H           -2.38948215       4.01916779       5.40195041
  H           -3.74771411       0.47147930      -1.21557512
  C           -1.41859782       2.98500500       3.84405190
  C           -3.32263781       2.28628814       1.91221413
--
  O           -5.53102237     -12.51893475      -8.92439275
  O           -2.40708886     -14.55016031     -10.85295990
  H           -0.50304887     -14.08254560      -6.26320991
  H            0.00000000     -11.20729480      -7.81129661
  H           -2.38948215     -11.43916986      -5.50006858
  H           -3.74771411     -14.98685835     -12.11759411
  C           -1.41859782     -12.47333265      -7.05796709
  C           -3.32263781     -13.17204951      -8.98980486
units = au
no_com
no_reorient
}

set {
  e_convergence 10
  d_convergence 10
  scf_type df
  mp2_type df
  cc_type df
  freeze_core true
}

energy('sapt0/aug-cc-pvdz')

--------------------------------------------------------------------------

  //              Dimer HF             //
    Molecular point group: c1
  Charge       = 0
  Multiplicity = 1
  Basis Set: AUG-CC-PVDZ
    Blend: AUG-CC-PVDZ
  Basis Set: (AUG-CC-PVDZ AUX)
    Blend: AUG-CC-PVDZ-JKFIT
  @DF-RHF Final Energy:  -455.68816461200146
    Total Energy =                       -455.6881646120014580
  //            Monomer A HF           //
    Molecular point group: c1
  Multiplicity = 1
  Basis Set: AUG-CC-PVDZ
    Blend: AUG-CC-PVDZ
  Basis Set: (AUG-CC-PVDZ AUX)
    Blend: AUG-CC-PVDZ-JKFIT
  @DF-RHF Final Energy:  -227.84408865597115
    Total Energy =                       -227.8440886559711487
  //            Monomer B HF           //
    Molecular point group: c1

    Geometry (in Bohr), charge = 0, multiplicity = 1:

       Center              X                  Y                   Z               Mass
    ------------   -----------------  -----------------  -----------------  -----------------
      Gh(O)          -5.531022370000     2.939402900000     1.977626240000    15.994914619570
      Gh(O)          -2.407088860000     0.908177340000     0.049059090000    15.994914619570
      Gh(H)          -0.503048870000     1.375792050000     4.638809080000     1.007825032230
      Gh(H)           0.000000000000     4.251042850000     3.090722380000     1.007825032230
      Gh(H)          -2.389482150000     4.019167790000     5.401950410000     1.007825032230
      Gh(H)          -3.747714110000     0.471479300000    -1.215575120000     1.007825032230
      Gh(C)          -1.418597820000     2.985005000000     3.844051900000    12.000000000000
      Gh(C)          -3.322637810000     2.286288140000     1.912214130000    12.000000000000
         O           -5.531022370000   -12.518934750000    -8.924392750000    15.994914619570
         O           -2.407088860000   -14.550160310000   -10.852959900000    15.994914619570
         H           -0.503048870000   -14.082545600000    -6.263209910000     1.007825032230
         H            0.000000000000   -11.207294800000    -7.811296610000     1.007825032230
         H           -2.389482150000   -11.439169860000    -5.500068580000     1.007825032230
         H           -3.747714110000   -14.986858350000   -12.117594110000     1.007825032230
         C           -1.418597820000   -12.473332650000    -7.057967090000    12.000000000000
         C           -3.322637810000   -13.172049510000    -8.989804860000    12.000000000000

  Charge       = 0
  Multiplicity = 1
  Basis Set: AUG-CC-PVDZ
    Blend: AUG-CC-PVDZ
  Basis Set: (AUG-CC-PVDZ AUX)
    Blend: AUG-CC-PVDZ-JKFIT

    Orbital Energies [Eh]
    ---------------------

    Doubly Occupied:

       1A    -20.629476     2A    -20.552804     3A    -11.396107
       4A    -11.250979     5A     -1.475852     6A     -1.357486
       7A     -1.032999     8A     -0.837930     9A     -0.703065
      10A     -0.688465    11A     -0.657749    12A     -0.576538
      13A     -0.569697    14A     -0.561404    15A     -0.475344
      16A     -0.452434

  @DF-RHF Final Energy:  -227.84408798553812

   => Energetics <=

    Nuclear Repulsion Energy =            121.7484302109716339
    One-Electron Energy =                -552.7483763063335118
    Two-Electron Energy =                 203.1558581098237823
    Total Energy =                       -227.8440879855381240

  Dipole Moment: [D]
     X:     2.1048      Y:    -0.7190      Z:    -0.2115     Total:     2.2342

    SAPT Results
  --------------------------------------------------------------------------------------------------------
    Electrostatics                  0.01327416 [mEh]       0.00832966 [kcal/mol]       0.03485130 [kJ/mol]
      Elst10,r                      0.01327416 [mEh]       0.00832966 [kcal/mol]       0.03485130 [kJ/mol]

    Exchange                        0.00000036 [mEh]       0.00000023 [kcal/mol]       0.00000094 [kJ/mol]
      Exch10                        0.00000036 [mEh]       0.00000023 [kcal/mol]       0.00000094 [kJ/mol]
      Exch10(S^2)                   0.00000036 [mEh]       0.00000023 [kcal/mol]       0.00000094 [kJ/mol]

    Induction                      -0.00124501 [mEh]      -0.00078126 [kcal/mol]      -0.00326878 [kJ/mol]
      Ind20,r                      -0.00114750 [mEh]      -0.00072007 [kcal/mol]      -0.00301277 [kJ/mol]
      Exch-Ind20,r                  0.00000268 [mEh]       0.00000168 [kcal/mol]       0.00000704 [kJ/mol]
      delta HF,r (2)               -0.00010019 [mEh]      -0.00006287 [kcal/mol]      -0.00026305 [kJ/mol]

    Dispersion                     -0.01672931 [mEh]      -0.01049780 [kcal/mol]      -0.04392279 [kJ/mol]
      Disp20                       -0.01672965 [mEh]      -0.01049802 [kcal/mol]      -0.04392370 [kJ/mol]
      Exch-Disp20                   0.00000035 [mEh]       0.00000022 [kcal/mol]       0.00000091 [kJ/mol]
      Disp20 (SS)                  -0.00836483 [mEh]      -0.00524901 [kcal/mol]      -0.02196185 [kJ/mol]
      Disp20 (OS)                  -0.00836483 [mEh]      -0.00524901 [kcal/mol]      -0.02196185 [kJ/mol]
      Exch-Disp20 (SS)              0.00000029 [mEh]       0.00000018 [kcal/mol]       0.00000076 [kJ/mol]
      Exch-Disp20 (OS)              0.00000006 [mEh]       0.00000004 [kcal/mol]       0.00000015 [kJ/mol]

  Total HF                          0.01202951 [mEh]       0.00754863 [kcal/mol]       0.03158347 [kJ/mol]
  Total SAPT0                      -0.00469980 [mEh]      -0.00294917 [kcal/mol]      -0.01233932 [kJ/mol]

  Special recipe for scaled SAPT0 (see Manual):
    Electrostatics sSAPT0           0.01327416 [mEh]       0.00832966 [kcal/mol]       0.03485130 [kJ/mol]
    Exchange sSAPT0                 0.00000036 [mEh]       0.00000023 [kcal/mol]       0.00000094 [kJ/mol]
    Induction sSAPT0               -0.00124501 [mEh]      -0.00078126 [kcal/mol]      -0.00326878 [kJ/mol]
    Dispersion sSAPT0              -0.01672931 [mEh]      -0.01049780 [kcal/mol]      -0.04392279 [kJ/mol]
  Total sSAPT0                     -0.00469980 [mEh]      -0.00294917 [kcal/mol]      -0.01233932 [kJ/mol]
  --------------------------------------------------------------------------------------------------------

*** Psi4 exiting successfully. Buy a developer a beer!
