                               Psi4 1.4rc3

  ==> Input File <==

--------------------------------------------------------------------------
# PSI4 file produced by CrystaLattE

# Generated from:               acetic_acid.xyz
# Psithon input for N-mer:      2mer-0+455
# Number of atoms per monomer:  [8, 8]
# Number of replicas:           2
# COM priority:                 1.925898763692e-05
# Minimum COM separations:      19.742
# Separation priority:          2.822179907354e-05
# Minimum monomer separations:  17.381
# Cutoff priority:              8.592369155101e-07
# Nuclear repulsion energy:     270.9018217598773

memory 7 GB

molecule Dimer_0_455 {
  O           -5.53102237       2.93940290       1.97762624
  O           -2.40708886       0.90817734       0.04905909
  H           -0.50304887       1.37579205       4.63880908
  H            0.00000000       4.25104285       3.09072238
  H           -2.38948215       4.01916779       5.40195041
  H           -3.74771411       0.47147930      -1.21557512
  C           -1.41859782       2.98500500       3.84405190
  C           -3.32263781       2.28628814       1.91221413
--
  O          -17.96136005      20.40268695     -25.27742123
  O          -21.08529356      22.43391252     -27.20598839
  H          -22.98933354      21.96629780     -22.61623840
  H          -23.49238242      19.09104700     -24.16432509
  H          -21.10290027      19.32292206     -21.85309707
  H          -19.74466831      22.87061056     -28.47062259
  C          -22.07378459      20.35708485     -23.41099558
  C          -20.16974460      21.05580172     -25.34283335
units = au
no_com
no_reorient
}

set {
  e_convergence 10
  d_convergence 10
  scf_type df
  mp2_type df
  cc_type df
  freeze_core true
}

energy('sapt0/aug-cc-pvdz')

--------------------------------------------------------------------------

  //              Dimer HF             //
    Molecular point group: c1
  Charge       = 0
  Multiplicity = 1
  Basis Set: AUG-CC-PVDZ
    Blend: AUG-CC-PVDZ
  Basis Set: (AUG-CC-PVDZ AUX)
    Blend: AUG-CC-PVDZ-JKFIT
  @DF-RHF Final Energy:  -455.68817915004786
    Total Energy =                       -455.6881791500478585
  //            Monomer A HF           //
    Molecular point group: c1
  Multiplicity = 1
  Basis Set: AUG-CC-PVDZ
    Blend: AUG-CC-PVDZ
  Basis Set: (AUG-CC-PVDZ AUX)
    Blend: AUG-CC-PVDZ-JKFIT
  @DF-RHF Final Energy:  -227.84408589649829
    Total Energy =                       -227.8440858964982851
  //            Monomer B HF           //
    Molecular point group: c1

    Geometry (in Bohr), charge = 0, multiplicity = 1:

       Center              X                  Y                   Z               Mass
    ------------   -----------------  -----------------  -----------------  -----------------
      Gh(O)          -5.531022370000     2.939402900000     1.977626240000    15.994914619570
      Gh(O)          -2.407088860000     0.908177340000     0.049059090000    15.994914619570
      Gh(H)          -0.503048870000     1.375792050000     4.638809080000     1.007825032230
      Gh(H)           0.000000000000     4.251042850000     3.090722380000     1.007825032230
      Gh(H)          -2.389482150000     4.019167790000     5.401950410000     1.007825032230
      Gh(H)          -3.747714110000     0.471479300000    -1.215575120000     1.007825032230
      Gh(C)          -1.418597820000     2.985005000000     3.844051900000    12.000000000000
      Gh(C)          -3.322637810000     2.286288140000     1.912214130000    12.000000000000
         O          -17.961360050000    20.402686950000   -25.277421230000    15.994914619570
         O          -21.085293560000    22.433912520000   -27.205988390000    15.994914619570
         H          -22.989333540000    21.966297800000   -22.616238400000     1.007825032230
         H          -23.492382420000    19.091047000000   -24.164325090000     1.007825032230
         H          -21.102900270000    19.322922060000   -21.853097070000     1.007825032230
         H          -19.744668310000    22.870610560000   -28.470622590000     1.007825032230
         C          -22.073784590000    20.357084850000   -23.410995580000    12.000000000000
         C          -20.169744600000    21.055801720000   -25.342833350000    12.000000000000

  Charge       = 0
  Multiplicity = 1
  Basis Set: AUG-CC-PVDZ
    Blend: AUG-CC-PVDZ
  Basis Set: (AUG-CC-PVDZ AUX)
    Blend: AUG-CC-PVDZ-JKFIT

    Orbital Energies [Eh]
    ---------------------

    Doubly Occupied:

       1A    -20.629476     2A    -20.552804     3A    -11.396108
       4A    -11.250979     5A     -1.475853     6A     -1.357486
       7A     -1.032999     8A     -0.837930     9A     -0.703065
      10A     -0.688465    11A     -0.657749    12A     -0.576538
      13A     -0.569697    14A     -0.561403    15A     -0.475343
      16A     -0.452434

  @DF-RHF Final Energy:  -227.84408589613835

   => Energetics <=

    Nuclear Repulsion Energy =            121.7484302359932826
    One-Electron Energy =                -552.7483714779885986
    Two-Electron Energy =                 203.1558553458569634
    Total Energy =                       -227.8440858961383526

  Dipole Moment: [D]
     X:    -2.1048      Y:     0.7191      Z:    -0.2116     Total:     2.2342

    SAPT Results
  --------------------------------------------------------------------------------------------------------
    Electrostatics                 -0.00732100 [mEh]      -0.00459400 [kcal/mol]      -0.01922129 [kJ/mol]
      Elst10,r                     -0.00732100 [mEh]      -0.00459400 [kcal/mol]      -0.01922129 [kJ/mol]

    Exchange                       -0.00000000 [mEh]      -0.00000000 [kcal/mol]      -0.00000000 [kJ/mol]
      Exch10                       -0.00000000 [mEh]      -0.00000000 [kcal/mol]      -0.00000000 [kJ/mol]
      Exch10(S^2)                  -0.00000000 [mEh]      -0.00000000 [kcal/mol]      -0.00000000 [kJ/mol]

    Induction                      -0.00003641 [mEh]      -0.00002285 [kcal/mol]      -0.00009559 [kJ/mol]
      Ind20,r                      -0.00002349 [mEh]      -0.00001474 [kcal/mol]      -0.00006166 [kJ/mol]
      Exch-Ind20,r                  0.00000000 [mEh]       0.00000000 [kcal/mol]       0.00000000 [kJ/mol]
      delta HF,r (2)               -0.00001292 [mEh]      -0.00000811 [kcal/mol]      -0.00003393 [kJ/mol]

    Dispersion                     -0.00021248 [mEh]      -0.00013333 [kcal/mol]      -0.00055787 [kJ/mol]
      Disp20                       -0.00021248 [mEh]      -0.00013333 [kcal/mol]      -0.00055787 [kJ/mol]
      Exch-Disp20                   0.00000000 [mEh]       0.00000000 [kcal/mol]       0.00000000 [kJ/mol]
      Disp20 (SS)                  -0.00010624 [mEh]      -0.00006667 [kcal/mol]      -0.00027893 [kJ/mol]
      Disp20 (OS)                  -0.00010624 [mEh]      -0.00006667 [kcal/mol]      -0.00027893 [kJ/mol]
      Exch-Disp20 (SS)              0.00000000 [mEh]       0.00000000 [kcal/mol]       0.00000000 [kJ/mol]
      Exch-Disp20 (OS)              0.00000000 [mEh]       0.00000000 [kcal/mol]       0.00000000 [kJ/mol]

  Total HF                         -0.00735741 [mEh]      -0.00461685 [kcal/mol]      -0.01931688 [kJ/mol]
  Total SAPT0                      -0.00756989 [mEh]      -0.00475018 [kcal/mol]      -0.01987475 [kJ/mol]

  Special recipe for scaled SAPT0 (see Manual):
    Electrostatics sSAPT0          -0.00732100 [mEh]      -0.00459400 [kcal/mol]      -0.01922129 [kJ/mol]
    Exchange sSAPT0                -0.00000000 [mEh]      -0.00000000 [kcal/mol]      -0.00000000 [kJ/mol]
    Induction sSAPT0               -0.00003641 [mEh]      -0.00002285 [kcal/mol]      -0.00009559 [kJ/mol]
    Dispersion sSAPT0              -0.00021248 [mEh]      -0.00013333 [kcal/mol]      -0.00055787 [kJ/mol]
  Total sSAPT0                     -0.00756989 [mEh]      -0.00475018 [kcal/mol]      -0.01987475 [kJ/mol]
  --------------------------------------------------------------------------------------------------------

*** Psi4 exiting successfully. Buy a developer a beer!
