                               Psi4 1.4rc3

  ==> Input File <==

--------------------------------------------------------------------------
# PSI4 file produced by CrystaLattE

# Generated from:               acetic_acid.xyz
# Psithon input for N-mer:      2mer-0+163
# Number of atoms per monomer:  [8, 8]
# Number of replicas:           2
# COM priority:                 3.522934704216e-05
# Minimum COM separations:      16.142
# Separation priority:          6.630832506161e-05
# Minimum monomer separations:  13.074
# Cutoff priority:              2.683844876533e-06
# Nuclear repulsion energy:     277.16058762997704

memory 7 GB

molecule Dimer_0_163 {
  O           -5.53102237       2.93940290       1.97762624
  O           -2.40708886       0.90817734       0.04905909
  H           -0.50304887       1.37579205       4.63880908
  H            0.00000000       4.25104285       3.09072238
  H           -2.38948215       4.01916779       5.40195041
  H           -3.74771411       0.47147930      -1.21557512
  C           -1.41859782       2.98500500       3.84405190
  C           -3.32263781       2.28628814       1.91221413
--
  O            7.19108365      12.67351812     -25.27742123
  O            4.06715015      14.70474369     -27.20598839
  H            2.16311016      14.23712898     -22.61623840
  H            1.66006128      11.36187817     -24.16432509
  H            4.04954344      11.59375324     -21.85309707
  H            5.40777540      15.14144173     -28.47062259
  C            3.07865911      12.62791603     -23.41099558
  C            4.98269910      13.32663289     -25.34283335
units = au
no_com
no_reorient
}

set {
  e_convergence 10
  d_convergence 10
  scf_type df
  mp2_type df
  cc_type df
  freeze_core true
}

energy('sapt0/aug-cc-pvdz')

--------------------------------------------------------------------------

  //              Dimer HF             //
    Molecular point group: c1
  Charge       = 0
  Multiplicity = 1
  Basis Set: AUG-CC-PVDZ
    Blend: AUG-CC-PVDZ
  Basis Set: (AUG-CC-PVDZ AUX)
    Blend: AUG-CC-PVDZ-JKFIT
  @DF-RHF Final Energy:  -455.68818710453161
    Total Energy =                       -455.6881871045316075
  //            Monomer A HF           //
    Molecular point group: c1
  Multiplicity = 1
  Basis Set: AUG-CC-PVDZ
    Blend: AUG-CC-PVDZ
  Basis Set: (AUG-CC-PVDZ AUX)
    Blend: AUG-CC-PVDZ-JKFIT
  @DF-RHF Final Energy:  -227.84408589446386
    Total Energy =                       -227.8440858944638592
  //            Monomer B HF           //
    Molecular point group: c1

    Geometry (in Bohr), charge = 0, multiplicity = 1:

       Center              X                  Y                   Z               Mass
    ------------   -----------------  -----------------  -----------------  -----------------
      Gh(O)          -5.531022370000     2.939402900000     1.977626240000    15.994914619570
      Gh(O)          -2.407088860000     0.908177340000     0.049059090000    15.994914619570
      Gh(H)          -0.503048870000     1.375792050000     4.638809080000     1.007825032230
      Gh(H)           0.000000000000     4.251042850000     3.090722380000     1.007825032230
      Gh(H)          -2.389482150000     4.019167790000     5.401950410000     1.007825032230
      Gh(H)          -3.747714110000     0.471479300000    -1.215575120000     1.007825032230
      Gh(C)          -1.418597820000     2.985005000000     3.844051900000    12.000000000000
      Gh(C)          -3.322637810000     2.286288140000     1.912214130000    12.000000000000
         O            7.191083650000    12.673518120000   -25.277421230000    15.994914619570
         O            4.067150150000    14.704743690000   -27.205988390000    15.994914619570
         H            2.163110160000    14.237128980000   -22.616238400000     1.007825032230
         H            1.660061280000    11.361878170000   -24.164325090000     1.007825032230
         H            4.049543440000    11.593753240000   -21.853097070000     1.007825032230
         H            5.407775400000    15.141441730000   -28.470622590000     1.007825032230
         C            3.078659110000    12.627916030000   -23.410995580000    12.000000000000
         C            4.982699100000    13.326632890000   -25.342833350000    12.000000000000

  Charge       = 0
  Multiplicity = 1
  Basis Set: AUG-CC-PVDZ
    Blend: AUG-CC-PVDZ
  Basis Set: (AUG-CC-PVDZ AUX)
    Blend: AUG-CC-PVDZ-JKFIT

    Orbital Energies [Eh]
    ---------------------

    Doubly Occupied:

       1A    -20.629476     2A    -20.552804     3A    -11.396108
       4A    -11.250979     5A     -1.475853     6A     -1.357486
       7A     -1.032999     8A     -0.837930     9A     -0.703065
      10A     -0.688465    11A     -0.657749    12A     -0.576538
      13A     -0.569697    14A     -0.561403    15A     -0.475343
      16A     -0.452434

  @DF-RHF Final Energy:  -227.84408589403841

   => Energetics <=

    Nuclear Repulsion Energy =            121.7484302959175864
    One-Electron Energy =                -552.7483715897675438
    Two-Electron Energy =                 203.1558553998115144
    Total Energy =                       -227.8440858940384146

  Dipole Moment: [D]
     X:    -2.1048      Y:     0.7191      Z:    -0.2116     Total:     2.2342

    SAPT Results
  --------------------------------------------------------------------------------------------------------
    Electrostatics                 -0.01525256 [mEh]      -0.00957112 [kcal/mol]      -0.04004558 [kJ/mol]
      Elst10,r                     -0.01525256 [mEh]      -0.00957112 [kcal/mol]      -0.04004558 [kJ/mol]

    Exchange                       -0.00000000 [mEh]      -0.00000000 [kcal/mol]      -0.00000000 [kJ/mol]
      Exch10                       -0.00000000 [mEh]      -0.00000000 [kcal/mol]      -0.00000000 [kJ/mol]
      Exch10(S^2)                  -0.00000000 [mEh]      -0.00000000 [kcal/mol]      -0.00000000 [kJ/mol]

    Induction                      -0.00006347 [mEh]      -0.00003983 [kcal/mol]      -0.00016665 [kJ/mol]
      Ind20,r                      -0.00003998 [mEh]      -0.00002509 [kcal/mol]      -0.00010496 [kJ/mol]
      Exch-Ind20,r                  0.00000000 [mEh]       0.00000000 [kcal/mol]       0.00000000 [kJ/mol]
      delta HF,r (2)               -0.00002350 [mEh]      -0.00001474 [kcal/mol]      -0.00006169 [kJ/mol]

    Dispersion                     -0.00078002 [mEh]      -0.00048947 [kcal/mol]      -0.00204795 [kJ/mol]
      Disp20                       -0.00078002 [mEh]      -0.00048947 [kcal/mol]      -0.00204795 [kJ/mol]
      Exch-Disp20                   0.00000000 [mEh]       0.00000000 [kcal/mol]       0.00000000 [kJ/mol]
      Disp20 (SS)                  -0.00039001 [mEh]      -0.00024474 [kcal/mol]      -0.00102398 [kJ/mol]
      Disp20 (OS)                  -0.00039001 [mEh]      -0.00024474 [kcal/mol]      -0.00102398 [kJ/mol]
      Exch-Disp20 (SS)              0.00000000 [mEh]       0.00000000 [kcal/mol]       0.00000000 [kJ/mol]
      Exch-Disp20 (OS)              0.00000000 [mEh]       0.00000000 [kcal/mol]       0.00000000 [kJ/mol]

  Total HF                         -0.01531603 [mEh]      -0.00961095 [kcal/mol]      -0.04021223 [kJ/mol]
  Total SAPT0                      -0.01609605 [mEh]      -0.01010043 [kcal/mol]      -0.04226018 [kJ/mol]

  Special recipe for scaled SAPT0 (see Manual):
    Electrostatics sSAPT0          -0.01525256 [mEh]      -0.00957112 [kcal/mol]      -0.04004558 [kJ/mol]
    Exchange sSAPT0                -0.00000000 [mEh]      -0.00000000 [kcal/mol]      -0.00000000 [kJ/mol]
    Induction sSAPT0               -0.00006347 [mEh]      -0.00003983 [kcal/mol]      -0.00016665 [kJ/mol]
    Dispersion sSAPT0              -0.00078002 [mEh]      -0.00048947 [kcal/mol]      -0.00204795 [kJ/mol]
  Total sSAPT0                     -0.01609605 [mEh]      -0.01010043 [kcal/mol]      -0.04226018 [kJ/mol]
  --------------------------------------------------------------------------------------------------------

*** Psi4 exiting successfully. Buy a developer a beer!
