                               Psi4 1.4rc3

  ==> Input File <==

--------------------------------------------------------------------------
# PSI4 file produced by CrystaLattE

# Generated from:               acetic_acid.xyz
# Psithon input for N-mer:      2mer-0+273
# Number of atoms per monomer:  [8, 8]
# Number of replicas:           2
# COM priority:                 2.838391258465e-05
# Minimum COM separations:      17.348
# Separation priority:          3.869726168528e-05
# Minimum monomer separations:  15.645
# Cutoff priority:              1.308901541350e-06
# Nuclear repulsion energy:     274.58736500970076

memory 7 GB

molecule Dimer_0_273 {
  O           -5.53102237       2.93940290       1.97762624
  O           -2.40708886       0.90817734       0.04905909
  H           -0.50304887       1.37579205       4.63880908
  H            0.00000000       4.25104285       3.09072238
  H           -2.38948215       4.01916779       5.40195041
  H           -3.74771411       0.47147930      -1.21557512
  C           -1.41859782       2.98500500       3.84405190
  C           -3.32263781       2.28628814       1.91221413
--
  O           -5.53102237     -27.97727240      12.87964524
  O           -2.40708886     -30.00849797      10.95107808
  H           -0.50304887     -29.54088325      15.54082807
  H            0.00000000     -26.66563245      13.99274137
  H           -2.38948215     -26.89750751      16.30396940
  H           -3.74771411     -30.44519600       9.68644387
  C           -1.41859782     -27.93167030      14.74607089
  C           -3.32263781     -28.63038716      12.81423312
units = au
no_com
no_reorient
}

set {
  e_convergence 10
  d_convergence 10
  scf_type df
  mp2_type df
  cc_type df
  freeze_core true
}

energy('sapt0/aug-cc-pvdz')

--------------------------------------------------------------------------

  //              Dimer HF             //
    Molecular point group: c1
  Charge       = 0
  Multiplicity = 1
  Basis Set: AUG-CC-PVDZ
    Blend: AUG-CC-PVDZ
  Basis Set: (AUG-CC-PVDZ AUX)
    Blend: AUG-CC-PVDZ-JKFIT
  @DF-RHF Final Energy:  -455.68815382785669
    Total Energy =                       -455.6881538278566950
  //            Monomer A HF           //
    Molecular point group: c1
  Multiplicity = 1
  Basis Set: AUG-CC-PVDZ
    Blend: AUG-CC-PVDZ
  Basis Set: (AUG-CC-PVDZ AUX)
    Blend: AUG-CC-PVDZ-JKFIT
  @DF-RHF Final Energy:  -227.84408589390384
    Total Energy =                       -227.8440858939038378
  //            Monomer B HF           //
    Molecular point group: c1

    Geometry (in Bohr), charge = 0, multiplicity = 1:

       Center              X                  Y                   Z               Mass
    ------------   -----------------  -----------------  -----------------  -----------------
      Gh(O)          -5.531022370000     2.939402900000     1.977626240000    15.994914619570
      Gh(O)          -2.407088860000     0.908177340000     0.049059090000    15.994914619570
      Gh(H)          -0.503048870000     1.375792050000     4.638809080000     1.007825032230
      Gh(H)           0.000000000000     4.251042850000     3.090722380000     1.007825032230
      Gh(H)          -2.389482150000     4.019167790000     5.401950410000     1.007825032230
      Gh(H)          -3.747714110000     0.471479300000    -1.215575120000     1.007825032230
      Gh(C)          -1.418597820000     2.985005000000     3.844051900000    12.000000000000
      Gh(C)          -3.322637810000     2.286288140000     1.912214130000    12.000000000000
         O           -5.531022370000   -27.977272400000    12.879645240000    15.994914619570
         O           -2.407088860000   -30.008497970000    10.951078080000    15.994914619570
         H           -0.503048870000   -29.540883250000    15.540828070000     1.007825032230
         H            0.000000000000   -26.665632450000    13.992741370000     1.007825032230
         H           -2.389482150000   -26.897507510000    16.303969400000     1.007825032230
         H           -3.747714110000   -30.445196000000     9.686443870000     1.007825032230
         C           -1.418597820000   -27.931670300000    14.746070890000    12.000000000000
         C           -3.322637810000   -28.630387160000    12.814233120000    12.000000000000

  Charge       = 0
  Multiplicity = 1
  Basis Set: AUG-CC-PVDZ
    Blend: AUG-CC-PVDZ
  Basis Set: (AUG-CC-PVDZ AUX)
    Blend: AUG-CC-PVDZ-JKFIT

    Orbital Energies [Eh]
    ---------------------

    Doubly Occupied:

       1A    -20.629476     2A    -20.552804     3A    -11.396108
       4A    -11.250979     5A     -1.475853     6A     -1.357486
       7A     -1.032999     8A     -0.837930     9A     -0.703065
      10A     -0.688465    11A     -0.657749    12A     -0.576538
      13A     -0.569697    14A     -0.561403    15A     -0.475343
      16A     -0.452434

  @DF-RHF Final Energy:  -227.84408589407317

   => Energetics <=

    Nuclear Repulsion Energy =            121.7484301324966793
    One-Electron Energy =                -552.7483712713260502
    Two-Electron Energy =                 203.1558552447562249
    Total Energy =                       -227.8440858940731744

  Dipole Moment: [D]
     X:     2.1048      Y:    -0.7191      Z:    -0.2116     Total:     2.2342

    SAPT Results
  --------------------------------------------------------------------------------------------------------
    Electrostatics                  0.01800597 [mEh]       0.01129892 [kcal/mol]       0.04727467 [kJ/mol]
      Elst10,r                      0.01800597 [mEh]       0.01129892 [kcal/mol]       0.04727467 [kJ/mol]

    Exchange                       -0.00000000 [mEh]      -0.00000000 [kcal/mol]      -0.00000000 [kJ/mol]
      Exch10                       -0.00000000 [mEh]      -0.00000000 [kcal/mol]      -0.00000000 [kJ/mol]
      Exch10(S^2)                  -0.00000000 [mEh]      -0.00000000 [kcal/mol]      -0.00000000 [kJ/mol]

    Induction                      -0.00004585 [mEh]      -0.00002877 [kcal/mol]      -0.00012038 [kJ/mol]
      Ind20,r                      -0.00002278 [mEh]      -0.00001429 [kcal/mol]      -0.00005980 [kJ/mol]
      Exch-Ind20,r                  0.00000000 [mEh]       0.00000000 [kcal/mol]       0.00000000 [kJ/mol]
      delta HF,r (2)               -0.00002307 [mEh]      -0.00001448 [kcal/mol]      -0.00006058 [kJ/mol]

    Dispersion                     -0.00040501 [mEh]      -0.00025415 [kcal/mol]      -0.00106335 [kJ/mol]
      Disp20                       -0.00040501 [mEh]      -0.00025415 [kcal/mol]      -0.00106335 [kJ/mol]
      Exch-Disp20                   0.00000000 [mEh]       0.00000000 [kcal/mol]       0.00000000 [kJ/mol]
      Disp20 (SS)                  -0.00020250 [mEh]      -0.00012707 [kcal/mol]      -0.00053167 [kJ/mol]
      Disp20 (OS)                  -0.00020250 [mEh]      -0.00012707 [kcal/mol]      -0.00053167 [kJ/mol]
      Exch-Disp20 (SS)              0.00000000 [mEh]       0.00000000 [kcal/mol]       0.00000000 [kJ/mol]
      Exch-Disp20 (OS)              0.00000000 [mEh]       0.00000000 [kcal/mol]       0.00000000 [kJ/mol]

  Total HF                          0.01796012 [mEh]       0.01127015 [kcal/mol]       0.04715429 [kJ/mol]
  Total SAPT0                       0.01755511 [mEh]       0.01101600 [kcal/mol]       0.04609094 [kJ/mol]

  Special recipe for scaled SAPT0 (see Manual):
    Electrostatics sSAPT0           0.01800597 [mEh]       0.01129892 [kcal/mol]       0.04727467 [kJ/mol]
    Exchange sSAPT0                -0.00000000 [mEh]      -0.00000000 [kcal/mol]      -0.00000000 [kJ/mol]
    Induction sSAPT0               -0.00004585 [mEh]      -0.00002877 [kcal/mol]      -0.00012038 [kJ/mol]
    Dispersion sSAPT0              -0.00040501 [mEh]      -0.00025415 [kcal/mol]      -0.00106335 [kJ/mol]
  Total sSAPT0                      0.01755511 [mEh]       0.01101600 [kcal/mol]       0.04609094 [kJ/mol]
  --------------------------------------------------------------------------------------------------------

*** Psi4 exiting successfully. Buy a developer a beer!
