                               Psi4 1.4rc3

  ==> Input File <==

--------------------------------------------------------------------------
# PSI4 file produced by CrystaLattE

# Generated from:               acetic_acid.xyz
# Psithon input for N-mer:      2mer-0+300
# Number of atoms per monomer:  [8, 8]
# Number of replicas:           2
# COM priority:                 2.323601254093e-05
# Minimum COM separations:      18.544
# Separation priority:          4.364660190838e-05
# Minimum monomer separations:  15.030
# Cutoff priority:              1.536740663873e-06
# Nuclear repulsion energy:     272.7856019095011

memory 7 GB

molecule Dimer_0_300 {
  O           -5.53102237       2.93940290       1.97762624
  O           -2.40708886       0.90817734       0.04905909
  H           -0.50304887       1.37579205       4.63880908
  H            0.00000000       4.25104285       3.09072238
  H           -2.38948215       4.01916779       5.40195041
  H           -3.74771411       0.47147930      -1.21557512
  C           -1.41859782       2.98500500       3.84405190
  C           -3.32263781       2.28628814       1.91221413
--
  O          -18.10724422       1.07976488     -30.72843073
  O          -14.98331071       3.11099045     -32.65699789
  H          -13.07927073       2.64337574     -28.06724789
  H          -12.57622185      -0.23187506     -29.61533459
  H          -14.96570400       0.00000000     -27.30410656
  H          -16.32393596       3.54768849     -33.92163209
  C          -13.99481968       1.03416279     -28.86200508
  C          -15.89885966       1.73287965     -30.79384284
units = au
no_com
no_reorient
}

set {
  e_convergence 10
  d_convergence 10
  scf_type df
  mp2_type df
  cc_type df
  freeze_core true
}

energy('sapt0/aug-cc-pvdz')

--------------------------------------------------------------------------

  //              Dimer HF             //
    Molecular point group: c1
  Charge       = 0
  Multiplicity = 1
  Basis Set: AUG-CC-PVDZ
    Blend: AUG-CC-PVDZ
  Basis Set: (AUG-CC-PVDZ AUX)
    Blend: AUG-CC-PVDZ-JKFIT
  @DF-RHF Final Energy:  -455.68815666616297
    Total Energy =                       -455.6881566661629677
  //            Monomer A HF           //
    Molecular point group: c1
  Multiplicity = 1
  Basis Set: AUG-CC-PVDZ
    Blend: AUG-CC-PVDZ
  Basis Set: (AUG-CC-PVDZ AUX)
    Blend: AUG-CC-PVDZ-JKFIT
  @DF-RHF Final Energy:  -227.84408589672648
    Total Energy =                       -227.8440858967264830
  //            Monomer B HF           //
    Molecular point group: c1

    Geometry (in Bohr), charge = 0, multiplicity = 1:

       Center              X                  Y                   Z               Mass
    ------------   -----------------  -----------------  -----------------  -----------------
      Gh(O)          -5.531022370000     2.939402900000     1.977626240000    15.994914619570
      Gh(O)          -2.407088860000     0.908177340000     0.049059090000    15.994914619570
      Gh(H)          -0.503048870000     1.375792050000     4.638809080000     1.007825032230
      Gh(H)           0.000000000000     4.251042850000     3.090722380000     1.007825032230
      Gh(H)          -2.389482150000     4.019167790000     5.401950410000     1.007825032230
      Gh(H)          -3.747714110000     0.471479300000    -1.215575120000     1.007825032230
      Gh(C)          -1.418597820000     2.985005000000     3.844051900000    12.000000000000
      Gh(C)          -3.322637810000     2.286288140000     1.912214130000    12.000000000000
         O          -18.107244220000     1.079764880000   -30.728430730000    15.994914619570
         O          -14.983310710000     3.110990450000   -32.656997890000    15.994914619570
         H          -13.079270730000     2.643375740000   -28.067247890000     1.007825032230
         H          -12.576221850000    -0.231875060000   -29.615334590000     1.007825032230
         H          -14.965704000000     0.000000000000   -27.304106560000     1.007825032230
         H          -16.323935960000     3.547688490000   -33.921632090000     1.007825032230
         C          -13.994819680000     1.034162790000   -28.862005080000    12.000000000000
         C          -15.898859660000     1.732879650000   -30.793842840000    12.000000000000

  Charge       = 0
  Multiplicity = 1
  Basis Set: AUG-CC-PVDZ
    Blend: AUG-CC-PVDZ
  Basis Set: (AUG-CC-PVDZ AUX)
    Blend: AUG-CC-PVDZ-JKFIT

    Orbital Energies [Eh]
    ---------------------

    Doubly Occupied:

       1A    -20.629476     2A    -20.552804     3A    -11.396108
       4A    -11.250979     5A     -1.475853     6A     -1.357486
       7A     -1.032999     8A     -0.837930     9A     -0.703065
      10A     -0.688465    11A     -0.657749    12A     -0.576538
      13A     -0.569697    14A     -0.561403    15A     -0.475343
      16A     -0.452434

  @DF-RHF Final Energy:  -227.84408589384901

   => Energetics <=

    Nuclear Repulsion Energy =            121.7484301935538440
    One-Electron Energy =                -552.7483713959618399
    Two-Electron Energy =                 203.1558553085589551
    Total Energy =                       -227.8440858938490123

  Dipole Moment: [D]
     X:     2.1048      Y:     0.7191      Z:    -0.2116     Total:     2.2342

    SAPT Results
  --------------------------------------------------------------------------------------------------------
    Electrostatics                  0.01516076 [mEh]       0.00951352 [kcal/mol]       0.03980457 [kJ/mol]
      Elst10,r                      0.01516076 [mEh]       0.00951352 [kcal/mol]       0.03980457 [kJ/mol]

    Exchange                       -0.00000000 [mEh]      -0.00000000 [kcal/mol]      -0.00000000 [kJ/mol]
      Exch10                       -0.00000000 [mEh]      -0.00000000 [kcal/mol]      -0.00000000 [kJ/mol]
      Exch10(S^2)                  -0.00000000 [mEh]      -0.00000000 [kcal/mol]      -0.00000000 [kJ/mol]

    Induction                      -0.00003635 [mEh]      -0.00002281 [kcal/mol]      -0.00009543 [kJ/mol]
      Ind20,r                      -0.00001932 [mEh]      -0.00001212 [kcal/mol]      -0.00005072 [kJ/mol]
      Exch-Ind20,r                  0.00000000 [mEh]       0.00000000 [kcal/mol]       0.00000000 [kJ/mol]
      delta HF,r (2)               -0.00001703 [mEh]      -0.00001069 [kcal/mol]      -0.00004472 [kJ/mol]

    Dispersion                     -0.00033568 [mEh]      -0.00021064 [kcal/mol]      -0.00088132 [kJ/mol]
      Disp20                       -0.00033568 [mEh]      -0.00021064 [kcal/mol]      -0.00088132 [kJ/mol]
      Exch-Disp20                   0.00000000 [mEh]       0.00000000 [kcal/mol]       0.00000000 [kJ/mol]
      Disp20 (SS)                  -0.00016784 [mEh]      -0.00010532 [kcal/mol]      -0.00044066 [kJ/mol]
      Disp20 (OS)                  -0.00016784 [mEh]      -0.00010532 [kcal/mol]      -0.00044066 [kJ/mol]
      Exch-Disp20 (SS)              0.00000000 [mEh]       0.00000000 [kcal/mol]       0.00000000 [kJ/mol]
      Exch-Disp20 (OS)              0.00000000 [mEh]       0.00000000 [kcal/mol]       0.00000000 [kJ/mol]

  Total HF                          0.01512441 [mEh]       0.00949071 [kcal/mol]       0.03970914 [kJ/mol]
  Total SAPT0                       0.01478874 [mEh]       0.00928007 [kcal/mol]       0.03882782 [kJ/mol]

  Special recipe for scaled SAPT0 (see Manual):
    Electrostatics sSAPT0           0.01516076 [mEh]       0.00951352 [kcal/mol]       0.03980457 [kJ/mol]
    Exchange sSAPT0                -0.00000000 [mEh]      -0.00000000 [kcal/mol]      -0.00000000 [kJ/mol]
    Induction sSAPT0               -0.00003635 [mEh]      -0.00002281 [kcal/mol]      -0.00009543 [kJ/mol]
    Dispersion sSAPT0              -0.00033568 [mEh]      -0.00021064 [kcal/mol]      -0.00088132 [kJ/mol]
  Total sSAPT0                      0.01478874 [mEh]       0.00928007 [kcal/mol]       0.03882782 [kJ/mol]
  --------------------------------------------------------------------------------------------------------

*** Psi4 exiting successfully. Buy a developer a beer!
