                               Psi4 1.4rc3

  ==> Input File <==

--------------------------------------------------------------------------
# PSI4 file produced by CrystaLattE

# Generated from:               acetic_acid.xyz
# Psithon input for N-mer:      2mer-0+8
# Number of atoms per monomer:  [8, 8]
# Number of replicas:           2
# COM priority:                 5.016547269168e-04
# Minimum COM separations:      6.660
# Separation priority:          2.102540823138e-03
# Minimum monomer separations:  4.131
# Cutoff priority:              2.693555421298e-04
# Nuclear repulsion energy:     325.72315483089824

memory 7 GB

molecule Dimer_0_8 {
  O           -5.53102237       2.93940290       1.97762624
  O           -2.40708886       0.90817734       0.04905909
  H           -0.50304887       1.37579205       4.63880908
  H            0.00000000       4.25104285       3.09072238
  H           -2.38948215       4.01916779       5.40195041
  H           -3.74771411       0.47147930      -1.21557512
  C           -1.41859782       2.98500500       3.84405190
  C           -3.32263781       2.28628814       1.91221413
--
  O            7.04519948       1.07976488       1.97762624
  O           10.16913299       3.11099045       0.04905909
  H           12.07317298       2.64337574       4.63880908
  H           12.57622185      -0.23187506       3.09072238
  H           10.18673970       0.00000000       5.40195041
  H            8.82850774       3.54768849      -1.21557512
  C           11.15762403       1.03416279       3.84405190
  C            9.25358404       1.73287965       1.91221413
units = au
no_com
no_reorient
}

set {
  e_convergence 10
  d_convergence 10
  scf_type df
  mp2_type df
  cc_type df
  freeze_core true
}

energy('sapt0/aug-cc-pvdz')

--------------------------------------------------------------------------

  //              Dimer HF             //
    Molecular point group: c1
  Charge       = 0
  Multiplicity = 1
  Basis Set: AUG-CC-PVDZ
    Blend: AUG-CC-PVDZ
  Basis Set: (AUG-CC-PVDZ AUX)
    Blend: AUG-CC-PVDZ-JKFIT
  @DF-RHF Final Energy:  -455.68880742825149
    Total Energy =                       -455.6888074282514935
  //            Monomer A HF           //
    Molecular point group: c1
  Multiplicity = 1
  Basis Set: AUG-CC-PVDZ
    Blend: AUG-CC-PVDZ
  Basis Set: (AUG-CC-PVDZ AUX)
    Blend: AUG-CC-PVDZ-JKFIT
  @DF-RHF Final Energy:  -227.84411747781883
    Total Energy =                       -227.8441174778188270
  //            Monomer B HF           //
    Molecular point group: c1

    Geometry (in Bohr), charge = 0, multiplicity = 1:

       Center              X                  Y                   Z               Mass
    ------------   -----------------  -----------------  -----------------  -----------------
      Gh(O)          -5.531022370000     2.939402900000     1.977626240000    15.994914619570
      Gh(O)          -2.407088860000     0.908177340000     0.049059090000    15.994914619570
      Gh(H)          -0.503048870000     1.375792050000     4.638809080000     1.007825032230
      Gh(H)           0.000000000000     4.251042850000     3.090722380000     1.007825032230
      Gh(H)          -2.389482150000     4.019167790000     5.401950410000     1.007825032230
      Gh(H)          -3.747714110000     0.471479300000    -1.215575120000     1.007825032230
      Gh(C)          -1.418597820000     2.985005000000     3.844051900000    12.000000000000
      Gh(C)          -3.322637810000     2.286288140000     1.912214130000    12.000000000000
         O            7.045199480000     1.079764880000     1.977626240000    15.994914619570
         O           10.169132990000     3.110990450000     0.049059090000    15.994914619570
         H           12.073172980000     2.643375740000     4.638809080000     1.007825032230
         H           12.576221850000    -0.231875060000     3.090722380000     1.007825032230
         H           10.186739700000     0.000000000000     5.401950410000     1.007825032230
         H            8.828507740000     3.547688490000    -1.215575120000     1.007825032230
         C           11.157624030000     1.034162790000     3.844051900000    12.000000000000
         C            9.253584040000     1.732879650000     1.912214130000    12.000000000000

  Charge       = 0
  Multiplicity = 1
  Basis Set: AUG-CC-PVDZ
    Blend: AUG-CC-PVDZ
  Basis Set: (AUG-CC-PVDZ AUX)
    Blend: AUG-CC-PVDZ-JKFIT

    Orbital Energies [Eh]
    ---------------------

    Doubly Occupied:

       1A    -20.629507     2A    -20.552851     3A    -11.396138
       4A    -11.250977     5A     -1.475863     6A     -1.357496
       7A     -1.033007     8A     -0.837941     9A     -0.703074
      10A     -0.688472    11A     -0.657753    12A     -0.576546
      13A     -0.569702    14A     -0.561412    15A     -0.475351
      16A     -0.452442

  @DF-RHF Final Energy:  -227.84414557817846

   => Energetics <=

    Nuclear Repulsion Energy =            121.7484301664003681
    One-Electron Energy =                -552.7480877767011407
    Two-Electron Energy =                 203.1555120321223455
    Total Energy =                       -227.8441455781784555

  Dipole Moment: [D]
     X:     2.1022      Y:     0.7186      Z:    -0.2109     Total:     2.2316

    SAPT Results
  --------------------------------------------------------------------------------------------------------
    Electrostatics                 -0.48883326 [mEh]      -0.30674750 [kcal/mol]      -1.28343155 [kJ/mol]
      Elst10,r                     -0.48883326 [mEh]      -0.30674750 [kcal/mol]      -1.28343155 [kJ/mol]

    Exchange                        0.01231382 [mEh]       0.00772704 [kcal/mol]       0.03232994 [kJ/mol]
      Exch10                        0.01231382 [mEh]       0.00772704 [kcal/mol]       0.03232994 [kJ/mol]
      Exch10(S^2)                   0.01231368 [mEh]       0.00772695 [kcal/mol]       0.03232955 [kJ/mol]

    Induction                      -0.06785282 [mEh]      -0.04257829 [kcal/mol]      -0.17814755 [kJ/mol]
      Ind20,r                      -0.06734352 [mEh]      -0.04225870 [kcal/mol]      -0.17681040 [kJ/mol]
      Exch-Ind20,r                  0.00112711 [mEh]       0.00070727 [kcal/mol]       0.00295922 [kJ/mol]
      delta HF,r (2)               -0.00163640 [mEh]      -0.00102686 [kcal/mol]      -0.00429638 [kJ/mol]

    Dispersion                     -0.30931765 [mEh]      -0.19409976 [kcal/mol]      -0.81211338 [kJ/mol]
      Disp20                       -0.31103418 [mEh]      -0.19517689 [kcal/mol]      -0.81662013 [kJ/mol]
      Exch-Disp20                   0.00171653 [mEh]       0.00107714 [kcal/mol]       0.00450675 [kJ/mol]
      Disp20 (SS)                  -0.15551709 [mEh]      -0.09758845 [kcal/mol]      -0.40831006 [kJ/mol]
      Disp20 (OS)                  -0.15551709 [mEh]      -0.09758845 [kcal/mol]      -0.40831006 [kJ/mol]
      Exch-Disp20 (SS)              0.00121709 [mEh]       0.00076374 [kcal/mol]       0.00319548 [kJ/mol]
      Exch-Disp20 (OS)              0.00049944 [mEh]       0.00031340 [kcal/mol]       0.00131127 [kJ/mol]

  Total HF                         -0.54437225 [mEh]      -0.34159875 [kcal/mol]      -1.42924916 [kJ/mol]
  Total SAPT0                      -0.85368990 [mEh]      -0.53569850 [kcal/mol]      -2.24136253 [kJ/mol]

  Special recipe for scaled SAPT0 (see Manual):
    Electrostatics sSAPT0          -0.48883326 [mEh]      -0.30674750 [kcal/mol]      -1.28343155 [kJ/mol]
    Exchange sSAPT0                 0.01231382 [mEh]       0.00772704 [kcal/mol]       0.03232994 [kJ/mol]
    Induction sSAPT0               -0.06785278 [mEh]      -0.04257826 [kcal/mol]      -0.17814745 [kJ/mol]
    Dispersion sSAPT0              -0.30931759 [mEh]      -0.19409972 [kcal/mol]      -0.81211321 [kJ/mol]
  Total sSAPT0                     -0.85368980 [mEh]      -0.53569844 [kcal/mol]      -2.24136226 [kJ/mol]
  --------------------------------------------------------------------------------------------------------

*** Psi4 exiting successfully. Buy a developer a beer!
