                               Psi4 1.4rc3

  ==> Input File <==

--------------------------------------------------------------------------
# PSI4 file produced by CrystaLattE

# Generated from:               acetic_acid.xyz
# Psithon input for N-mer:      2mer-0+72
# Number of atoms per monomer:  [8, 8]
# Number of replicas:           2
# COM priority:                 1.577962015042e-04
# Minimum COM separations:      9.793
# Separation priority:          3.128454531889e-04
# Minimum monomer separations:  7.795
# Cutoff priority:              2.123765019443e-05
# Nuclear repulsion energy:     298.50028015521906

memory 7 GB

molecule Dimer_0_72 {
  O           -5.53102237       2.93940290       1.97762624
  O           -2.40708886       0.90817734       0.04905909
  H           -0.50304887       1.37579205       4.63880908
  H            0.00000000       4.25104285       3.09072238
  H           -2.38948215       4.01916779       5.40195041
  H           -3.74771411       0.47147930      -1.21557512
  C           -1.41859782       2.98500500       3.84405190
  C           -3.32263781       2.28628814       1.91221413
--
  O          -17.96136005      -2.78481953      -3.47338325
  O          -21.08529356      -0.75359396      -5.40195041
  H          -22.98933354      -1.22120867      -0.81220041
  H          -23.49238242      -4.09645948      -2.36028711
  H          -21.10290027      -3.86458441      -0.04905909
  H          -19.74466831      -0.31689592      -6.66658461
  C          -22.07378459      -2.83042162      -1.60695760
  C          -20.16974460      -2.13170476      -3.53879536
units = au
no_com
no_reorient
}

set {
  e_convergence 10
  d_convergence 10
  scf_type df
  mp2_type df
  cc_type df
  freeze_core true
}

energy('sapt0/aug-cc-pvdz')

--------------------------------------------------------------------------

  //              Dimer HF             //
    Molecular point group: c1
  Charge       = 0
  Multiplicity = 1
  Basis Set: AUG-CC-PVDZ
    Blend: AUG-CC-PVDZ
  Basis Set: (AUG-CC-PVDZ AUX)
    Blend: AUG-CC-PVDZ-JKFIT
  @DF-RHF Final Energy:  -455.68808530130923
    Total Energy =                       -455.6880853013092292
  //            Monomer A HF           //
    Molecular point group: c1
  Multiplicity = 1
  Basis Set: AUG-CC-PVDZ
    Blend: AUG-CC-PVDZ
  Basis Set: (AUG-CC-PVDZ AUX)
    Blend: AUG-CC-PVDZ-JKFIT
  @DF-RHF Final Energy:  -227.84408654210341
    Total Energy =                       -227.8440865421034118
  //            Monomer B HF           //
    Molecular point group: c1

    Geometry (in Bohr), charge = 0, multiplicity = 1:

       Center              X                  Y                   Z               Mass
    ------------   -----------------  -----------------  -----------------  -----------------
      Gh(O)          -5.531022370000     2.939402900000     1.977626240000    15.994914619570
      Gh(O)          -2.407088860000     0.908177340000     0.049059090000    15.994914619570
      Gh(H)          -0.503048870000     1.375792050000     4.638809080000     1.007825032230
      Gh(H)           0.000000000000     4.251042850000     3.090722380000     1.007825032230
      Gh(H)          -2.389482150000     4.019167790000     5.401950410000     1.007825032230
      Gh(H)          -3.747714110000     0.471479300000    -1.215575120000     1.007825032230
      Gh(C)          -1.418597820000     2.985005000000     3.844051900000    12.000000000000
      Gh(C)          -3.322637810000     2.286288140000     1.912214130000    12.000000000000
         O          -17.961360050000    -2.784819530000    -3.473383250000    15.994914619570
         O          -21.085293560000    -0.753593960000    -5.401950410000    15.994914619570
         H          -22.989333540000    -1.221208670000    -0.812200410000     1.007825032230
         H          -23.492382420000    -4.096459480000    -2.360287110000     1.007825032230
         H          -21.102900270000    -3.864584410000    -0.049059090000     1.007825032230
         H          -19.744668310000    -0.316895920000    -6.666584610000     1.007825032230
         C          -22.073784590000    -2.830421620000    -1.606957600000    12.000000000000
         C          -20.169744600000    -2.131704760000    -3.538795360000    12.000000000000

  Charge       = 0
  Multiplicity = 1
  Basis Set: AUG-CC-PVDZ
    Blend: AUG-CC-PVDZ
  Basis Set: (AUG-CC-PVDZ AUX)
    Blend: AUG-CC-PVDZ-JKFIT

    Orbital Energies [Eh]
    ---------------------

    Doubly Occupied:

       1A    -20.629476     2A    -20.552804     3A    -11.396108
       4A    -11.250979     5A     -1.475852     6A     -1.357486
       7A     -1.032999     8A     -0.837930     9A     -0.703065
      10A     -0.688465    11A     -0.657749    12A     -0.576538
      13A     -0.569697    14A     -0.561403    15A     -0.475343
      16A     -0.452433

  @DF-RHF Final Energy:  -227.84408672807703

   => Energetics <=

    Nuclear Repulsion Energy =            121.7484302190484584
    One-Electron Energy =                -552.7483754387993713
    Two-Electron Energy =                 203.1558584916738539
    Total Energy =                       -227.8440867280770306

  Dipole Moment: [D]
     X:    -2.1047      Y:     0.7190      Z:    -0.2116     Total:     2.2342

    SAPT Results
  --------------------------------------------------------------------------------------------------------
    Electrostatics                  0.09132610 [mEh]       0.05730799 [kcal/mol]       0.23977664 [kJ/mol]
      Elst10,r                      0.09132610 [mEh]       0.05730799 [kcal/mol]       0.23977664 [kJ/mol]

    Exchange                        0.00000000 [mEh]       0.00000000 [kcal/mol]       0.00000001 [kJ/mol]
      Exch10                        0.00000000 [mEh]       0.00000000 [kcal/mol]       0.00000001 [kJ/mol]
      Exch10(S^2)                   0.00000000 [mEh]       0.00000000 [kcal/mol]       0.00000001 [kJ/mol]

    Induction                      -0.00335723 [mEh]      -0.00210670 [kcal/mol]      -0.00881441 [kJ/mol]
      Ind20,r                      -0.00335634 [mEh]      -0.00210614 [kcal/mol]      -0.00881208 [kJ/mol]
      Exch-Ind20,r                  0.00000117 [mEh]       0.00000074 [kcal/mol]       0.00000308 [kJ/mol]
      delta HF,r (2)               -0.00000206 [mEh]      -0.00000129 [kcal/mol]      -0.00000542 [kJ/mol]

    Dispersion                     -0.01537182 [mEh]      -0.00964597 [kcal/mol]      -0.04035872 [kJ/mol]
      Disp20                       -0.01537202 [mEh]      -0.00964609 [kcal/mol]      -0.04035924 [kJ/mol]
      Exch-Disp20                   0.00000020 [mEh]       0.00000012 [kcal/mol]       0.00000052 [kJ/mol]
      Disp20 (SS)                  -0.00768601 [mEh]      -0.00482305 [kcal/mol]      -0.02017962 [kJ/mol]
      Disp20 (OS)                  -0.00768601 [mEh]      -0.00482305 [kcal/mol]      -0.02017962 [kJ/mol]
      Exch-Disp20 (SS)              0.00000016 [mEh]       0.00000010 [kcal/mol]       0.00000043 [kJ/mol]
      Exch-Disp20 (OS)              0.00000004 [mEh]       0.00000002 [kcal/mol]       0.00000010 [kJ/mol]

  Total HF                          0.08796887 [mEh]       0.05520130 [kcal/mol]       0.23096224 [kJ/mol]
  Total SAPT0                       0.07259705 [mEh]       0.04555533 [kcal/mol]       0.19060352 [kJ/mol]

  Special recipe for scaled SAPT0 (see Manual):
    Electrostatics sSAPT0           0.09132610 [mEh]       0.05730799 [kcal/mol]       0.23977664 [kJ/mol]
    Exchange sSAPT0                 0.00000000 [mEh]       0.00000000 [kcal/mol]       0.00000001 [kJ/mol]
    Induction sSAPT0               -0.00335723 [mEh]      -0.00210670 [kcal/mol]      -0.00881441 [kJ/mol]
    Dispersion sSAPT0              -0.01537182 [mEh]      -0.00964597 [kcal/mol]      -0.04035872 [kJ/mol]
  Total sSAPT0                      0.07259705 [mEh]       0.04555533 [kcal/mol]       0.19060352 [kJ/mol]
  --------------------------------------------------------------------------------------------------------

*** Psi4 exiting successfully. Buy a developer a beer!
