                               Psi4 1.4rc3

  ==> Input File <==

--------------------------------------------------------------------------
# PSI4 file produced by CrystaLattE

# Generated from:               acetic_acid.xyz
# Psithon input for N-mer:      2mer-0+169
# Number of atoms per monomer:  [8, 8]
# Number of replicas:           2
# COM priority:                 5.318965729141e-05
# Minimum COM separations:      14.071
# Separation priority:          9.055718623173e-05
# Minimum monomer separations:  11.784
# Cutoff priority:              4.066591604365e-06
# Nuclear repulsion energy:     281.8071054875495

memory 7 GB

molecule Dimer_0_169 {
  O           -5.53102237       2.93940290       1.97762624
  O           -2.40708886       0.90817734       0.04905909
  H           -0.50304887       1.37579205       4.63880908
  H            0.00000000       4.25104285       3.09072238
  H           -2.38948215       4.01916779       5.40195041
  H           -3.74771411       0.47147930      -1.21557512
  C           -1.41859782       2.98500500       3.84405190
  C           -3.32263781       2.28628814       1.91221413
--
  O          -17.96136005     -10.51398835     -14.37540224
  O          -21.08529356      -8.48276279     -16.30396940
  H          -22.98933354      -8.95037750     -11.71421941
  H          -23.49238242     -11.82562830     -13.26230610
  H          -21.10290027     -11.59375324     -10.95107808
  H          -19.74466831      -8.04606475     -17.56860360
  C          -22.07378459     -10.55959045     -12.50897659
  C          -20.16974460      -9.86087359     -14.44081435
units = au
no_com
no_reorient
}

set {
  e_convergence 10
  d_convergence 10
  scf_type df
  mp2_type df
  cc_type df
  freeze_core true
}

energy('sapt0/aug-cc-pvdz')

--------------------------------------------------------------------------

  //              Dimer HF             //
    Molecular point group: c1
  Charge       = 0
  Multiplicity = 1
  Basis Set: AUG-CC-PVDZ
    Blend: AUG-CC-PVDZ
  Basis Set: (AUG-CC-PVDZ AUX)
    Blend: AUG-CC-PVDZ-JKFIT
  @DF-RHF Final Energy:  -455.68823058975602
    Total Energy =                       -455.6882305897560173
  //            Monomer A HF           //
    Molecular point group: c1
  Multiplicity = 1
  Basis Set: AUG-CC-PVDZ
    Blend: AUG-CC-PVDZ
  Basis Set: (AUG-CC-PVDZ AUX)
    Blend: AUG-CC-PVDZ-JKFIT
  @DF-RHF Final Energy:  -227.84408589854337
    Total Energy =                       -227.8440858985433692
  //            Monomer B HF           //
    Molecular point group: c1

    Geometry (in Bohr), charge = 0, multiplicity = 1:

       Center              X                  Y                   Z               Mass
    ------------   -----------------  -----------------  -----------------  -----------------
      Gh(O)          -5.531022370000     2.939402900000     1.977626240000    15.994914619570
      Gh(O)          -2.407088860000     0.908177340000     0.049059090000    15.994914619570
      Gh(H)          -0.503048870000     1.375792050000     4.638809080000     1.007825032230
      Gh(H)           0.000000000000     4.251042850000     3.090722380000     1.007825032230
      Gh(H)          -2.389482150000     4.019167790000     5.401950410000     1.007825032230
      Gh(H)          -3.747714110000     0.471479300000    -1.215575120000     1.007825032230
      Gh(C)          -1.418597820000     2.985005000000     3.844051900000    12.000000000000
      Gh(C)          -3.322637810000     2.286288140000     1.912214130000    12.000000000000
         O          -17.961360050000   -10.513988350000   -14.375402240000    15.994914619570
         O          -21.085293560000    -8.482762790000   -16.303969400000    15.994914619570
         H          -22.989333540000    -8.950377500000   -11.714219410000     1.007825032230
         H          -23.492382420000   -11.825628300000   -13.262306100000     1.007825032230
         H          -21.102900270000   -11.593753240000   -10.951078080000     1.007825032230
         H          -19.744668310000    -8.046064750000   -17.568603600000     1.007825032230
         C          -22.073784590000   -10.559590450000   -12.508976590000    12.000000000000
         C          -20.169744600000    -9.860873590000   -14.440814350000    12.000000000000

  Charge       = 0
  Multiplicity = 1
  Basis Set: AUG-CC-PVDZ
    Blend: AUG-CC-PVDZ
  Basis Set: (AUG-CC-PVDZ AUX)
    Blend: AUG-CC-PVDZ-JKFIT

    Orbital Energies [Eh]
    ---------------------

    Doubly Occupied:

       1A    -20.629476     2A    -20.552804     3A    -11.396108
       4A    -11.250979     5A     -1.475853     6A     -1.357486
       7A     -1.032999     8A     -0.837930     9A     -0.703065
      10A     -0.688465    11A     -0.657749    12A     -0.576538
      13A     -0.569697    14A     -0.561403    15A     -0.475343
      16A     -0.452434

  @DF-RHF Final Energy:  -227.84408589547559

   => Energetics <=

    Nuclear Repulsion Energy =            121.7484302905417763
    One-Electron Energy =                -552.7483715850767112
    Two-Electron Energy =                 203.1558553990593623
    Total Energy =                       -227.8440858954755868

  Dipole Moment: [D]
     X:    -2.1048      Y:     0.7191      Z:    -0.2116     Total:     2.2342

    SAPT Results
  --------------------------------------------------------------------------------------------------------
    Electrostatics                 -0.05860163 [mEh]      -0.03677308 [kcal/mol]      -0.15385856 [kJ/mol]
      Elst10,r                     -0.05860163 [mEh]      -0.03677308 [kcal/mol]      -0.15385856 [kJ/mol]

    Exchange                       -0.00000000 [mEh]      -0.00000000 [kcal/mol]      -0.00000000 [kJ/mol]
      Exch10                       -0.00000000 [mEh]      -0.00000000 [kcal/mol]      -0.00000000 [kJ/mol]
      Exch10(S^2)                  -0.00000000 [mEh]      -0.00000000 [kcal/mol]      -0.00000000 [kJ/mol]

    Induction                      -0.00019411 [mEh]      -0.00012180 [kcal/mol]      -0.00050963 [kJ/mol]
      Ind20,r                      -0.00016862 [mEh]      -0.00010581 [kcal/mol]      -0.00044272 [kJ/mol]
      Exch-Ind20,r                  0.00000000 [mEh]       0.00000000 [kcal/mol]       0.00000000 [kJ/mol]
      delta HF,r (2)               -0.00002548 [mEh]      -0.00001599 [kcal/mol]      -0.00006691 [kJ/mol]

    Dispersion                     -0.00150928 [mEh]      -0.00094708 [kcal/mol]      -0.00396260 [kJ/mol]
      Disp20                       -0.00150928 [mEh]      -0.00094708 [kcal/mol]      -0.00396260 [kJ/mol]
      Exch-Disp20                   0.00000000 [mEh]       0.00000000 [kcal/mol]       0.00000000 [kJ/mol]
      Disp20 (SS)                  -0.00075464 [mEh]      -0.00047354 [kcal/mol]      -0.00198130 [kJ/mol]
      Disp20 (OS)                  -0.00075464 [mEh]      -0.00047354 [kcal/mol]      -0.00198130 [kJ/mol]
      Exch-Disp20 (SS)              0.00000000 [mEh]       0.00000000 [kcal/mol]       0.00000000 [kJ/mol]
      Exch-Disp20 (OS)              0.00000000 [mEh]       0.00000000 [kcal/mol]       0.00000000 [kJ/mol]

  Total HF                         -0.05879574 [mEh]      -0.03689488 [kcal/mol]      -0.15436819 [kJ/mol]
  Total SAPT0                      -0.06030501 [mEh]      -0.03784197 [kcal/mol]      -0.15833079 [kJ/mol]

  Special recipe for scaled SAPT0 (see Manual):
    Electrostatics sSAPT0          -0.05860163 [mEh]      -0.03677308 [kcal/mol]      -0.15385856 [kJ/mol]
    Exchange sSAPT0                -0.00000000 [mEh]      -0.00000000 [kcal/mol]      -0.00000000 [kJ/mol]
    Induction sSAPT0               -0.00019411 [mEh]      -0.00012180 [kcal/mol]      -0.00050963 [kJ/mol]
    Dispersion sSAPT0              -0.00150928 [mEh]      -0.00094708 [kcal/mol]      -0.00396260 [kJ/mol]
  Total sSAPT0                     -0.06030501 [mEh]      -0.03784197 [kcal/mol]      -0.15833079 [kJ/mol]
  --------------------------------------------------------------------------------------------------------

*** Psi4 exiting successfully. Buy a developer a beer!
