                               Psi4 1.4rc3

  ==> Input File <==

--------------------------------------------------------------------------
# PSI4 file produced by CrystaLattE

# Generated from:               acetic_acid.xyz
# Psithon input for N-mer:      2mer-0+250
# Number of atoms per monomer:  [8, 8]
# Number of replicas:           2
# COM priority:                 2.323601254093e-05
# Minimum COM separations:      18.544
# Separation priority:          3.863543969959e-05
# Minimum monomer separations:  15.653
# Cutoff priority:              1.306114183436e-06
# Nuclear repulsion energy:     272.71651019291113

memory 7 GB

molecule Dimer_0_250 {
  O           -5.53102237       2.93940290       1.97762624
  O           -2.40708886       0.90817734       0.04905909
  H           -0.50304887       1.37579205       4.63880908
  H            0.00000000       4.25104285       3.09072238
  H           -2.38948215       4.01916779       5.40195041
  H           -3.74771411       0.47147930      -1.21557512
  C           -1.41859782       2.98500500       3.84405190
  C           -3.32263781       2.28628814       1.91221413
--
  O            7.04519948       1.07976488     -30.72843073
  O           10.16913299       3.11099045     -32.65699789
  H           12.07317298       2.64337574     -28.06724789
  H           12.57622185      -0.23187506     -29.61533459
  H           10.18673970       0.00000000     -27.30410656
  H            8.82850774       3.54768849     -33.92163209
  C           11.15762403       1.03416279     -28.86200508
  C            9.25358404       1.73287965     -30.79384284
units = au
no_com
no_reorient
}

set {
  e_convergence 10
  d_convergence 10
  scf_type df
  mp2_type df
  cc_type df
  freeze_core true
}

energy('sapt0/aug-cc-pvdz')

--------------------------------------------------------------------------

  //              Dimer HF             //
    Molecular point group: c1
  Charge       = 0
  Multiplicity = 1
  Basis Set: AUG-CC-PVDZ
    Blend: AUG-CC-PVDZ
  Basis Set: (AUG-CC-PVDZ AUX)
    Blend: AUG-CC-PVDZ-JKFIT
  @DF-RHF Final Energy:  -455.68817147152419
    Total Energy =                       -455.6881714715241856
  //            Monomer A HF           //
    Molecular point group: c1
  Multiplicity = 1
  Basis Set: AUG-CC-PVDZ
    Blend: AUG-CC-PVDZ
  Basis Set: (AUG-CC-PVDZ AUX)
    Blend: AUG-CC-PVDZ-JKFIT
  @DF-RHF Final Energy:  -227.84408589580261
    Total Energy =                       -227.8440858958026070
  //            Monomer B HF           //
    Molecular point group: c1

    Geometry (in Bohr), charge = 0, multiplicity = 1:

       Center              X                  Y                   Z               Mass
    ------------   -----------------  -----------------  -----------------  -----------------
      Gh(O)          -5.531022370000     2.939402900000     1.977626240000    15.994914619570
      Gh(O)          -2.407088860000     0.908177340000     0.049059090000    15.994914619570
      Gh(H)          -0.503048870000     1.375792050000     4.638809080000     1.007825032230
      Gh(H)           0.000000000000     4.251042850000     3.090722380000     1.007825032230
      Gh(H)          -2.389482150000     4.019167790000     5.401950410000     1.007825032230
      Gh(H)          -3.747714110000     0.471479300000    -1.215575120000     1.007825032230
      Gh(C)          -1.418597820000     2.985005000000     3.844051900000    12.000000000000
      Gh(C)          -3.322637810000     2.286288140000     1.912214130000    12.000000000000
         O            7.045199480000     1.079764880000   -30.728430730000    15.994914619570
         O           10.169132990000     3.110990450000   -32.656997890000    15.994914619570
         H           12.073172980000     2.643375740000   -28.067247890000     1.007825032230
         H           12.576221850000    -0.231875060000   -29.615334590000     1.007825032230
         H           10.186739700000     0.000000000000   -27.304106560000     1.007825032230
         H            8.828507740000     3.547688490000   -33.921632090000     1.007825032230
         C           11.157624030000     1.034162790000   -28.862005080000    12.000000000000
         C            9.253584040000     1.732879650000   -30.793842840000    12.000000000000

  Charge       = 0
  Multiplicity = 1
  Basis Set: AUG-CC-PVDZ
    Blend: AUG-CC-PVDZ
  Basis Set: (AUG-CC-PVDZ AUX)
    Blend: AUG-CC-PVDZ-JKFIT

    Orbital Energies [Eh]
    ---------------------

    Doubly Occupied:

       1A    -20.629476     2A    -20.552804     3A    -11.396108
       4A    -11.250979     5A     -1.475853     6A     -1.357486
       7A     -1.032999     8A     -0.837930     9A     -0.703065
      10A     -0.688465    11A     -0.657749    12A     -0.576538
      13A     -0.569697    14A     -0.561403    15A     -0.475343
      16A     -0.452434

  @DF-RHF Final Energy:  -227.84408589455276

   => Energetics <=

    Nuclear Repulsion Energy =            121.7484301323647884
    One-Electron Energy =                -552.7483712757284593
    Two-Electron Energy =                 203.1558552488109228
    Total Energy =                       -227.8440858945527623

  Dipole Moment: [D]
     X:     2.1048      Y:     0.7191      Z:    -0.2116     Total:     2.2342

    SAPT Results
  --------------------------------------------------------------------------------------------------------
    Electrostatics                  0.00036409 [mEh]       0.00022847 [kcal/mol]       0.00095592 [kJ/mol]
      Elst10,r                      0.00036409 [mEh]       0.00022847 [kcal/mol]       0.00095592 [kJ/mol]

    Exchange                       -0.00000000 [mEh]      -0.00000000 [kcal/mol]      -0.00000000 [kJ/mol]
      Exch10                       -0.00000000 [mEh]      -0.00000000 [kcal/mol]      -0.00000000 [kJ/mol]
      Exch10(S^2)                  -0.00000000 [mEh]      -0.00000000 [kcal/mol]      -0.00000000 [kJ/mol]

    Induction                      -0.00004526 [mEh]      -0.00002840 [kcal/mol]      -0.00011882 [kJ/mol]
      Ind20,r                      -0.00002298 [mEh]      -0.00001442 [kcal/mol]      -0.00006033 [kJ/mol]
      Exch-Ind20,r                  0.00000000 [mEh]       0.00000000 [kcal/mol]       0.00000000 [kJ/mol]
      delta HF,r (2)               -0.00002228 [mEh]      -0.00001398 [kcal/mol]      -0.00005849 [kJ/mol]

    Dispersion                     -0.00031509 [mEh]      -0.00019772 [kcal/mol]      -0.00082726 [kJ/mol]
      Disp20                       -0.00031509 [mEh]      -0.00019772 [kcal/mol]      -0.00082726 [kJ/mol]
      Exch-Disp20                   0.00000000 [mEh]       0.00000000 [kcal/mol]       0.00000000 [kJ/mol]
      Disp20 (SS)                  -0.00015754 [mEh]      -0.00009886 [kcal/mol]      -0.00041363 [kJ/mol]
      Disp20 (OS)                  -0.00015754 [mEh]      -0.00009886 [kcal/mol]      -0.00041363 [kJ/mol]
      Exch-Disp20 (SS)              0.00000000 [mEh]       0.00000000 [kcal/mol]       0.00000000 [kJ/mol]
      Exch-Disp20 (OS)              0.00000000 [mEh]       0.00000000 [kcal/mol]       0.00000000 [kJ/mol]

  Total HF                          0.00031883 [mEh]       0.00020007 [kcal/mol]       0.00083709 [kJ/mol]
  Total SAPT0                       0.00000374 [mEh]       0.00000235 [kcal/mol]       0.00000983 [kJ/mol]

  Special recipe for scaled SAPT0 (see Manual):
    Electrostatics sSAPT0           0.00036409 [mEh]       0.00022847 [kcal/mol]       0.00095592 [kJ/mol]
    Exchange sSAPT0                -0.00000000 [mEh]      -0.00000000 [kcal/mol]      -0.00000000 [kJ/mol]
    Induction sSAPT0               -0.00004526 [mEh]      -0.00002840 [kcal/mol]      -0.00011882 [kJ/mol]
    Dispersion sSAPT0              -0.00031509 [mEh]      -0.00019772 [kcal/mol]      -0.00082726 [kJ/mol]
  Total sSAPT0                      0.00000374 [mEh]       0.00000235 [kcal/mol]       0.00000983 [kJ/mol]
  --------------------------------------------------------------------------------------------------------

*** Psi4 exiting successfully. Buy a developer a beer!
