                               Psi4 1.4rc3

  ==> Input File <==

--------------------------------------------------------------------------
# PSI4 file produced by CrystaLattE

# Generated from:               acetic_acid.xyz
# Psithon input for N-mer:      2mer-0+324
# Number of atoms per monomer:  [8, 8]
# Number of replicas:           2
# COM priority:                 1.684870584482e-05
# Minimum COM separations:      20.642
# Separation priority:          2.634041080745e-05
# Minimum monomer separations:  17.785
# Cutoff priority:              7.837244431790e-07
# Nuclear repulsion energy:     269.8568679530273

memory 7 GB

molecule Dimer_0_324 {
  O           -5.53102237       2.93940290       1.97762624
  O           -2.40708886       0.90817734       0.04905909
  H           -0.50304887       1.37579205       4.63880908
  H            0.00000000       4.25104285       3.09072238
  H           -2.38948215       4.01916779       5.40195041
  H           -3.74771411       0.47147930      -1.21557512
  C           -1.41859782       2.98500500       3.84405190
  C           -3.32263781       2.28628814       1.91221413
--
  O           32.34352736     -18.24315718      -3.47338325
  O           29.21959385     -16.21193161      -5.40195041
  H           27.31555386     -16.67954633      -0.81220041
  H           26.81250499     -19.55479713      -2.36028711
  H           29.20198714     -19.32292206      -0.04905909
  H           30.56021910     -15.77523357      -6.66658461
  C           28.23110281     -18.28875928      -1.60695760
  C           30.13514280     -17.59004241      -3.53879536
units = au
no_com
no_reorient
}

set {
  e_convergence 10
  d_convergence 10
  scf_type df
  mp2_type df
  cc_type df
  freeze_core true
}

energy('sapt0/aug-cc-pvdz')

--------------------------------------------------------------------------

  //              Dimer HF             //
    Molecular point group: c1
  Charge       = 0
  Multiplicity = 1
  Basis Set: AUG-CC-PVDZ
    Blend: AUG-CC-PVDZ
  Basis Set: (AUG-CC-PVDZ AUX)
    Blend: AUG-CC-PVDZ-JKFIT
  @DF-RHF Final Energy:  -455.68815887242687
    Total Energy =                       -455.6881588724268681
  //            Monomer A HF           //
    Molecular point group: c1
  Multiplicity = 1
  Basis Set: AUG-CC-PVDZ
    Blend: AUG-CC-PVDZ
  Basis Set: (AUG-CC-PVDZ AUX)
    Blend: AUG-CC-PVDZ-JKFIT
  @DF-RHF Final Energy:  -227.84408589517980
    Total Energy =                       -227.8440858951798020
  //            Monomer B HF           //
    Molecular point group: c1

    Geometry (in Bohr), charge = 0, multiplicity = 1:

       Center              X                  Y                   Z               Mass
    ------------   -----------------  -----------------  -----------------  -----------------
      Gh(O)          -5.531022370000     2.939402900000     1.977626240000    15.994914619570
      Gh(O)          -2.407088860000     0.908177340000     0.049059090000    15.994914619570
      Gh(H)          -0.503048870000     1.375792050000     4.638809080000     1.007825032230
      Gh(H)           0.000000000000     4.251042850000     3.090722380000     1.007825032230
      Gh(H)          -2.389482150000     4.019167790000     5.401950410000     1.007825032230
      Gh(H)          -3.747714110000     0.471479300000    -1.215575120000     1.007825032230
      Gh(C)          -1.418597820000     2.985005000000     3.844051900000    12.000000000000
      Gh(C)          -3.322637810000     2.286288140000     1.912214130000    12.000000000000
         O           32.343527360000   -18.243157180000    -3.473383250000    15.994914619570
         O           29.219593850000   -16.211931610000    -5.401950410000    15.994914619570
         H           27.315553860000   -16.679546330000    -0.812200410000     1.007825032230
         H           26.812504990000   -19.554797130000    -2.360287110000     1.007825032230
         H           29.201987140000   -19.322922060000    -0.049059090000     1.007825032230
         H           30.560219100000   -15.775233570000    -6.666584610000     1.007825032230
         C           28.231102810000   -18.288759280000    -1.606957600000    12.000000000000
         C           30.135142800000   -17.590042410000    -3.538795360000    12.000000000000

  Charge       = 0
  Multiplicity = 1
  Basis Set: AUG-CC-PVDZ
    Blend: AUG-CC-PVDZ
  Basis Set: (AUG-CC-PVDZ AUX)
    Blend: AUG-CC-PVDZ-JKFIT

    Orbital Energies [Eh]
    ---------------------

    Doubly Occupied:

       1A    -20.629476     2A    -20.552804     3A    -11.396108
       4A    -11.250979     5A     -1.475853     6A     -1.357486
       7A     -1.032999     8A     -0.837930     9A     -0.703065
      10A     -0.688465    11A     -0.657749    12A     -0.576538
      13A     -0.569697    14A     -0.561403    15A     -0.475343
      16A     -0.452434

  @DF-RHF Final Energy:  -227.84408589499415

   => Energetics <=

    Nuclear Repulsion Energy =            121.7484301311248487
    One-Electron Energy =                -552.7483712751206895
    Two-Electron Energy =                 203.1558552490016893
    Total Energy =                       -227.8440858949941514

  Dipole Moment: [D]
     X:    -2.1048      Y:     0.7191      Z:    -0.2116     Total:     2.2342

    SAPT Results
  --------------------------------------------------------------------------------------------------------
    Electrostatics                  0.01295429 [mEh]       0.00812894 [kcal/mol]       0.03401148 [kJ/mol]
      Elst10,r                      0.01295429 [mEh]       0.00812894 [kcal/mol]       0.03401148 [kJ/mol]

    Exchange                       -0.00000000 [mEh]      -0.00000000 [kcal/mol]      -0.00000000 [kJ/mol]
      Exch10                       -0.00000000 [mEh]      -0.00000000 [kcal/mol]      -0.00000000 [kJ/mol]
      Exch10(S^2)                  -0.00000000 [mEh]      -0.00000000 [kcal/mol]      -0.00000000 [kJ/mol]

    Induction                      -0.00003654 [mEh]      -0.00002293 [kcal/mol]      -0.00009594 [kJ/mol]
      Ind20,r                      -0.00001510 [mEh]      -0.00000947 [kcal/mol]      -0.00003964 [kJ/mol]
      Exch-Ind20,r                  0.00000000 [mEh]       0.00000000 [kcal/mol]       0.00000000 [kJ/mol]
      delta HF,r (2)               -0.00002144 [mEh]      -0.00001346 [kcal/mol]      -0.00005630 [kJ/mol]

    Dispersion                     -0.00018766 [mEh]      -0.00011776 [kcal/mol]      -0.00049269 [kJ/mol]
      Disp20                       -0.00018766 [mEh]      -0.00011776 [kcal/mol]      -0.00049269 [kJ/mol]
      Exch-Disp20                   0.00000000 [mEh]       0.00000000 [kcal/mol]       0.00000000 [kJ/mol]
      Disp20 (SS)                  -0.00009383 [mEh]      -0.00005888 [kcal/mol]      -0.00024635 [kJ/mol]
      Disp20 (OS)                  -0.00009383 [mEh]      -0.00005888 [kcal/mol]      -0.00024635 [kJ/mol]
      Exch-Disp20 (SS)              0.00000000 [mEh]       0.00000000 [kcal/mol]       0.00000000 [kJ/mol]
      Exch-Disp20 (OS)              0.00000000 [mEh]       0.00000000 [kcal/mol]       0.00000000 [kJ/mol]

  Total HF                          0.01291775 [mEh]       0.00810601 [kcal/mol]       0.03391554 [kJ/mol]
  Total SAPT0                       0.01273009 [mEh]       0.00798825 [kcal/mol]       0.03342285 [kJ/mol]

  Special recipe for scaled SAPT0 (see Manual):
    Electrostatics sSAPT0           0.01295429 [mEh]       0.00812894 [kcal/mol]       0.03401148 [kJ/mol]
    Exchange sSAPT0                -0.00000000 [mEh]      -0.00000000 [kcal/mol]      -0.00000000 [kJ/mol]
    Induction sSAPT0               -0.00003654 [mEh]      -0.00002293 [kcal/mol]      -0.00009594 [kJ/mol]
    Dispersion sSAPT0              -0.00018766 [mEh]      -0.00011776 [kcal/mol]      -0.00049269 [kJ/mol]
  Total sSAPT0                      0.01273009 [mEh]       0.00798825 [kcal/mol]       0.03342285 [kJ/mol]
  --------------------------------------------------------------------------------------------------------

*** Psi4 exiting successfully. Buy a developer a beer!
