                               Psi4 1.4rc3

  ==> Input File <==

--------------------------------------------------------------------------
# PSI4 file produced by CrystaLattE

# Generated from:               acetic_acid.xyz
# Psithon input for N-mer:      2mer-0+322
# Number of atoms per monomer:  [8, 8]
# Number of replicas:           2
# COM priority:                 2.045153614659e-05
# Minimum COM separations:      19.351
# Separation priority:          2.746736699954e-05
# Minimum monomer separations:  17.539
# Cutoff priority:              8.287484078056e-07
# Nuclear repulsion energy:     271.4535742572111

memory 7 GB

molecule Dimer_0_322 {
  O           -5.53102237       2.93940290       1.97762624
  O           -2.40708886       0.90817734       0.04905909
  H           -0.50304887       1.37579205       4.63880908
  H            0.00000000       4.25104285       3.09072238
  H           -2.38948215       4.01916779       5.40195041
  H           -3.74771411       0.47147930      -1.21557512
  C           -1.41859782       2.98500500       3.84405190
  C           -3.32263781       2.28628814       1.91221413
--
  O            7.19108365     -33.70149483       7.42863574
  O            4.06715015     -31.67026926       5.50006858
  H            2.16311016     -32.13788398      10.08981858
  H            1.66006128     -35.01313478       8.54173188
  H            4.04954344     -34.78125972      10.85295990
  H            5.40777540     -31.23357122       4.23543438
  C            3.07865911     -33.74709693       9.29506139
  C            4.98269910     -33.04838007       7.36322363
units = au
no_com
no_reorient
}

set {
  e_convergence 10
  d_convergence 10
  scf_type df
  mp2_type df
  cc_type df
  freeze_core true
}

energy('sapt0/aug-cc-pvdz')

--------------------------------------------------------------------------

  //              Dimer HF             //
    Molecular point group: c1
  Charge       = 0
  Multiplicity = 1
  Basis Set: AUG-CC-PVDZ
    Blend: AUG-CC-PVDZ
  Basis Set: (AUG-CC-PVDZ AUX)
    Blend: AUG-CC-PVDZ-JKFIT
  @DF-RHF Final Energy:  -455.68817117063253
    Total Energy =                       -455.6881711706325291
  //            Monomer A HF           //
    Molecular point group: c1
  Multiplicity = 1
  Basis Set: AUG-CC-PVDZ
    Blend: AUG-CC-PVDZ
  Basis Set: (AUG-CC-PVDZ AUX)
    Blend: AUG-CC-PVDZ-JKFIT
  @DF-RHF Final Energy:  -227.84408589499600
    Total Energy =                       -227.8440858949959988
  //            Monomer B HF           //
    Molecular point group: c1

    Geometry (in Bohr), charge = 0, multiplicity = 1:

       Center              X                  Y                   Z               Mass
    ------------   -----------------  -----------------  -----------------  -----------------
      Gh(O)          -5.531022370000     2.939402900000     1.977626240000    15.994914619570
      Gh(O)          -2.407088860000     0.908177340000     0.049059090000    15.994914619570
      Gh(H)          -0.503048870000     1.375792050000     4.638809080000     1.007825032230
      Gh(H)           0.000000000000     4.251042850000     3.090722380000     1.007825032230
      Gh(H)          -2.389482150000     4.019167790000     5.401950410000     1.007825032230
      Gh(H)          -3.747714110000     0.471479300000    -1.215575120000     1.007825032230
      Gh(C)          -1.418597820000     2.985005000000     3.844051900000    12.000000000000
      Gh(C)          -3.322637810000     2.286288140000     1.912214130000    12.000000000000
         O            7.191083650000   -33.701494830000     7.428635740000    15.994914619570
         O            4.067150150000   -31.670269260000     5.500068580000    15.994914619570
         H            2.163110160000   -32.137883980000    10.089818580000     1.007825032230
         H            1.660061280000   -35.013134780000     8.541731880000     1.007825032230
         H            4.049543440000   -34.781259720000    10.852959900000     1.007825032230
         H            5.407775400000   -31.233571220000     4.235434380000     1.007825032230
         C            3.078659110000   -33.747096930000     9.295061390000    12.000000000000
         C            4.982699100000   -33.048380070000     7.363223630000    12.000000000000

  Charge       = 0
  Multiplicity = 1
  Basis Set: AUG-CC-PVDZ
    Blend: AUG-CC-PVDZ
  Basis Set: (AUG-CC-PVDZ AUX)
    Blend: AUG-CC-PVDZ-JKFIT

    Orbital Energies [Eh]
    ---------------------

    Doubly Occupied:

       1A    -20.629476     2A    -20.552804     3A    -11.396108
       4A    -11.250979     5A     -1.475853     6A     -1.357486
       7A     -1.032999     8A     -0.837930     9A     -0.703065
      10A     -0.688465    11A     -0.657749    12A     -0.576538
      13A     -0.569697    14A     -0.561403    15A     -0.475343
      16A     -0.452434

  @DF-RHF Final Energy:  -227.84408589633520

   => Energetics <=

    Nuclear Repulsion Energy =            121.7484302407388412
    One-Electron Energy =                -552.7483714972277085
    Two-Electron Energy =                 203.1558553601536516
    Total Energy =                       -227.8440858963352014

  Dipole Moment: [D]
     X:    -2.1048      Y:     0.7191      Z:    -0.2116     Total:     2.2342

    SAPT Results
  --------------------------------------------------------------------------------------------------------
    Electrostatics                  0.00065096 [mEh]       0.00040848 [kcal/mol]       0.00170909 [kJ/mol]
      Elst10,r                      0.00065096 [mEh]       0.00040848 [kcal/mol]       0.00170909 [kJ/mol]

    Exchange                       -0.00000000 [mEh]      -0.00000000 [kcal/mol]      -0.00000000 [kJ/mol]
      Exch10                       -0.00000000 [mEh]      -0.00000000 [kcal/mol]      -0.00000000 [kJ/mol]
      Exch10(S^2)                  -0.00000000 [mEh]      -0.00000000 [kcal/mol]      -0.00000000 [kJ/mol]

    Induction                      -0.00003026 [mEh]      -0.00001899 [kcal/mol]      -0.00007945 [kJ/mol]
      Ind20,r                      -0.00001035 [mEh]      -0.00000649 [kcal/mol]      -0.00002716 [kJ/mol]
      Exch-Ind20,r                  0.00000000 [mEh]       0.00000000 [kcal/mol]       0.00000000 [kJ/mol]
      delta HF,r (2)               -0.00001991 [mEh]      -0.00001250 [kcal/mol]      -0.00005229 [kJ/mol]

    Dispersion                     -0.00022138 [mEh]      -0.00013892 [kcal/mol]      -0.00058123 [kJ/mol]
      Disp20                       -0.00022138 [mEh]      -0.00013892 [kcal/mol]      -0.00058123 [kJ/mol]
      Exch-Disp20                   0.00000000 [mEh]       0.00000000 [kcal/mol]       0.00000000 [kJ/mol]
      Disp20 (SS)                  -0.00011069 [mEh]      -0.00006946 [kcal/mol]      -0.00029061 [kJ/mol]
      Disp20 (OS)                  -0.00011069 [mEh]      -0.00006946 [kcal/mol]      -0.00029061 [kJ/mol]
      Exch-Disp20 (SS)              0.00000000 [mEh]       0.00000000 [kcal/mol]       0.00000000 [kJ/mol]
      Exch-Disp20 (OS)              0.00000000 [mEh]       0.00000000 [kcal/mol]       0.00000000 [kJ/mol]

  Total HF                          0.00062070 [mEh]       0.00038949 [kcal/mol]       0.00162964 [kJ/mol]
  Total SAPT0                       0.00039932 [mEh]       0.00025058 [kcal/mol]       0.00104841 [kJ/mol]

  Special recipe for scaled SAPT0 (see Manual):
    Electrostatics sSAPT0           0.00065096 [mEh]       0.00040848 [kcal/mol]       0.00170909 [kJ/mol]
    Exchange sSAPT0                -0.00000000 [mEh]      -0.00000000 [kcal/mol]      -0.00000000 [kJ/mol]
    Induction sSAPT0               -0.00003026 [mEh]      -0.00001899 [kcal/mol]      -0.00007945 [kJ/mol]
    Dispersion sSAPT0              -0.00022138 [mEh]      -0.00013892 [kcal/mol]      -0.00058123 [kJ/mol]
  Total sSAPT0                      0.00039932 [mEh]       0.00025058 [kcal/mol]       0.00104841 [kJ/mol]
  --------------------------------------------------------------------------------------------------------

*** Psi4 exiting successfully. Buy a developer a beer!
