                               Psi4 1.4rc3

  ==> Input File <==

--------------------------------------------------------------------------
# PSI4 file produced by CrystaLattE

# Generated from:               acetic_acid.xyz
# Psithon input for N-mer:      2mer-0+436
# Number of atoms per monomer:  [8, 8]
# Number of replicas:           2
# COM priority:                 2.167623708690e-05
# Minimum COM separations:      18.979
# Separation priority:          3.032118918208e-05
# Minimum monomer separations:  16.970
# Cutoff priority:              9.455002328721e-07
# Nuclear repulsion energy:     271.9234769879905

memory 7 GB

molecule Dimer_0_436 {
  O           -5.53102237       2.93940290       1.97762624
  O           -2.40708886       0.90817734       0.04905909
  H           -0.50304887       1.37579205       4.63880908
  H            0.00000000       4.25104285       3.09072238
  H           -2.38948215       4.01916779       5.40195041
  H           -3.74771411       0.47147930      -1.21557512
  C           -1.41859782       2.98500500       3.84405190
  C           -3.32263781       2.28628814       1.91221413
--
  O          -30.53758190     -16.38351916       7.42863574
  O          -33.66151541     -18.41474473       5.50006858
  H          -35.56555540     -17.94713001      10.08981858
  H          -36.06860427     -15.07187921       8.54173188
  H          -33.67912212     -15.30375427      10.85295990
  H          -32.32089016     -18.85144277       4.23543438
  C          -34.65000644     -16.33791706       9.29506139
  C          -32.74596646     -17.03663393       7.36322363
units = au
no_com
no_reorient
}

set {
  e_convergence 10
  d_convergence 10
  scf_type df
  mp2_type df
  cc_type df
  freeze_core true
}

energy('sapt0/aug-cc-pvdz')

--------------------------------------------------------------------------

  //              Dimer HF             //
    Molecular point group: c1
  Charge       = 0
  Multiplicity = 1
  Basis Set: AUG-CC-PVDZ
    Blend: AUG-CC-PVDZ
  Basis Set: (AUG-CC-PVDZ AUX)
    Blend: AUG-CC-PVDZ-JKFIT
  @DF-RHF Final Energy:  -455.68814772278006
    Total Energy =                       -455.6881477227800588
  //            Monomer A HF           //
    Molecular point group: c1
  Multiplicity = 1
  Basis Set: AUG-CC-PVDZ
    Blend: AUG-CC-PVDZ
  Basis Set: (AUG-CC-PVDZ AUX)
    Blend: AUG-CC-PVDZ-JKFIT
  @DF-RHF Final Energy:  -227.84408589638679
    Total Energy =                       -227.8440858963867868
  //            Monomer B HF           //
    Molecular point group: c1

    Geometry (in Bohr), charge = 0, multiplicity = 1:

       Center              X                  Y                   Z               Mass
    ------------   -----------------  -----------------  -----------------  -----------------
      Gh(O)          -5.531022370000     2.939402900000     1.977626240000    15.994914619570
      Gh(O)          -2.407088860000     0.908177340000     0.049059090000    15.994914619570
      Gh(H)          -0.503048870000     1.375792050000     4.638809080000     1.007825032230
      Gh(H)           0.000000000000     4.251042850000     3.090722380000     1.007825032230
      Gh(H)          -2.389482150000     4.019167790000     5.401950410000     1.007825032230
      Gh(H)          -3.747714110000     0.471479300000    -1.215575120000     1.007825032230
      Gh(C)          -1.418597820000     2.985005000000     3.844051900000    12.000000000000
      Gh(C)          -3.322637810000     2.286288140000     1.912214130000    12.000000000000
         O          -30.537581900000   -16.383519160000     7.428635740000    15.994914619570
         O          -33.661515410000   -18.414744730000     5.500068580000    15.994914619570
         H          -35.565555400000   -17.947130010000    10.089818580000     1.007825032230
         H          -36.068604270000   -15.071879210000     8.541731880000     1.007825032230
         H          -33.679122120000   -15.303754270000    10.852959900000     1.007825032230
         H          -32.320890160000   -18.851442770000     4.235434380000     1.007825032230
         C          -34.650006440000   -16.337917060000     9.295061390000    12.000000000000
         C          -32.745966460000   -17.036633930000     7.363223630000    12.000000000000

  Charge       = 0
  Multiplicity = 1
  Basis Set: AUG-CC-PVDZ
    Blend: AUG-CC-PVDZ
  Basis Set: (AUG-CC-PVDZ AUX)
    Blend: AUG-CC-PVDZ-JKFIT

    Orbital Energies [Eh]
    ---------------------

    Doubly Occupied:

       1A    -20.629476     2A    -20.552804     3A    -11.396108
       4A    -11.250979     5A     -1.475853     6A     -1.357486
       7A     -1.032999     8A     -0.837930     9A     -0.703065
      10A     -0.688465    11A     -0.657749    12A     -0.576538
      13A     -0.569697    14A     -0.561403    15A     -0.475343
      16A     -0.452434

  @DF-RHF Final Energy:  -227.84408589695764

   => Energetics <=

    Nuclear Repulsion Energy =            121.7484301685239672
    One-Electron Energy =                -552.7483713584385896
    Two-Electron Energy =                 203.1558552929569998
    Total Energy =                       -227.8440858969576368

  Dipole Moment: [D]
     X:    -2.1048      Y:    -0.7191      Z:    -0.2116     Total:     2.2342

    SAPT Results
  --------------------------------------------------------------------------------------------------------
    Electrostatics                  0.02411811 [mEh]       0.01513434 [kcal/mol]       0.06332209 [kJ/mol]
      Elst10,r                      0.02411811 [mEh]       0.01513434 [kcal/mol]       0.06332209 [kJ/mol]

    Exchange                       -0.00000000 [mEh]      -0.00000000 [kcal/mol]      -0.00000000 [kJ/mol]
      Exch10                       -0.00000000 [mEh]      -0.00000000 [kcal/mol]      -0.00000000 [kJ/mol]
      Exch10(S^2)                  -0.00000000 [mEh]      -0.00000000 [kcal/mol]      -0.00000000 [kJ/mol]

    Induction                      -0.00004755 [mEh]      -0.00002984 [kcal/mol]      -0.00012483 [kJ/mol]
      Ind20,r                      -0.00004419 [mEh]      -0.00002773 [kcal/mol]      -0.00011602 [kJ/mol]
      Exch-Ind20,r                  0.00000000 [mEh]       0.00000000 [kcal/mol]       0.00000000 [kJ/mol]
      delta HF,r (2)               -0.00000336 [mEh]      -0.00000211 [kcal/mol]      -0.00000881 [kJ/mol]

    Dispersion                     -0.00025703 [mEh]      -0.00016129 [kcal/mol]      -0.00067483 [kJ/mol]
      Disp20                       -0.00025703 [mEh]      -0.00016129 [kcal/mol]      -0.00067483 [kJ/mol]
      Exch-Disp20                   0.00000000 [mEh]       0.00000000 [kcal/mol]       0.00000000 [kJ/mol]
      Disp20 (SS)                  -0.00012852 [mEh]      -0.00008064 [kcal/mol]      -0.00033742 [kJ/mol]
      Disp20 (OS)                  -0.00012852 [mEh]      -0.00008064 [kcal/mol]      -0.00033742 [kJ/mol]
      Exch-Disp20 (SS)              0.00000000 [mEh]       0.00000000 [kcal/mol]       0.00000000 [kJ/mol]
      Exch-Disp20 (OS)              0.00000000 [mEh]       0.00000000 [kcal/mol]       0.00000000 [kJ/mol]

  Total HF                          0.02407056 [mEh]       0.01510451 [kcal/mol]       0.06319726 [kJ/mol]
  Total SAPT0                       0.02381353 [mEh]       0.01494322 [kcal/mol]       0.06252242 [kJ/mol]

  Special recipe for scaled SAPT0 (see Manual):
    Electrostatics sSAPT0           0.02411811 [mEh]       0.01513434 [kcal/mol]       0.06332209 [kJ/mol]
    Exchange sSAPT0                -0.00000000 [mEh]      -0.00000000 [kcal/mol]      -0.00000000 [kJ/mol]
    Induction sSAPT0               -0.00004755 [mEh]      -0.00002984 [kcal/mol]      -0.00012483 [kJ/mol]
    Dispersion sSAPT0              -0.00025703 [mEh]      -0.00016129 [kcal/mol]      -0.00067483 [kJ/mol]
  Total sSAPT0                      0.02381353 [mEh]       0.01494322 [kcal/mol]       0.06252242 [kJ/mol]
  --------------------------------------------------------------------------------------------------------

*** Psi4 exiting successfully. Buy a developer a beer!
