                               Psi4 1.4rc3

  ==> Input File <==

--------------------------------------------------------------------------
# PSI4 file produced by CrystaLattE

# Generated from:               acetic_acid.xyz
# Psithon input for N-mer:      2mer-0+56
# Number of atoms per monomer:  [8, 8]
# Number of replicas:           2
# COM priority:                 8.077542501655e-05
# Minimum COM separations:      12.242
# Separation priority:          2.530433471173e-04
# Minimum monomer separations:  8.366
# Cutoff priority:              1.600515550478e-05
# Nuclear repulsion energy:     288.0362919318016

memory 7 GB

molecule Dimer_0_56 {
  O           -5.53102237       2.93940290       1.97762624
  O           -2.40708886       0.90817734       0.04905909
  H           -0.50304887       1.37579205       4.63880908
  H            0.00000000       4.25104285       3.09072238
  H           -2.38948215       4.01916779       5.40195041
  H           -3.74771411       0.47147930      -1.21557512
  C           -1.41859782       2.98500500       3.84405190
  C           -3.32263781       2.28628814       1.91221413
--
  O           -5.53102237      -4.78976592     -19.82641174
  O           -2.40708886      -6.82099149     -21.75497890
  H           -0.50304887      -6.35337677     -17.16522890
  H            0.00000000      -3.47812597     -18.71331560
  H           -2.38948215      -3.71000104     -16.40208757
  H           -3.74771411      -7.25768953     -23.01961310
  C           -1.41859782      -4.74416383     -17.95998608
  C           -3.32263781      -5.44288069     -19.89182385
units = au
no_com
no_reorient
}

set {
  e_convergence 10
  d_convergence 10
  scf_type df
  mp2_type df
  cc_type df
  freeze_core true
}

energy('sapt0/aug-cc-pvdz')

--------------------------------------------------------------------------

  //              Dimer HF             //
    Molecular point group: c1
  Charge       = 0
  Multiplicity = 1
  Basis Set: AUG-CC-PVDZ
    Blend: AUG-CC-PVDZ
  Basis Set: (AUG-CC-PVDZ AUX)
    Blend: AUG-CC-PVDZ-JKFIT
  @DF-RHF Final Energy:  -455.68812204259262
    Total Energy =                       -455.6881220425926244
  //            Monomer A HF           //
    Molecular point group: c1
  Multiplicity = 1
  Basis Set: AUG-CC-PVDZ
    Blend: AUG-CC-PVDZ
  Basis Set: (AUG-CC-PVDZ AUX)
    Blend: AUG-CC-PVDZ-JKFIT
  @DF-RHF Final Energy:  -227.84408639159372
    Total Energy =                       -227.8440863915937200
  //            Monomer B HF           //
    Molecular point group: c1

    Geometry (in Bohr), charge = 0, multiplicity = 1:

       Center              X                  Y                   Z               Mass
    ------------   -----------------  -----------------  -----------------  -----------------
      Gh(O)          -5.531022370000     2.939402900000     1.977626240000    15.994914619570
      Gh(O)          -2.407088860000     0.908177340000     0.049059090000    15.994914619570
      Gh(H)          -0.503048870000     1.375792050000     4.638809080000     1.007825032230
      Gh(H)           0.000000000000     4.251042850000     3.090722380000     1.007825032230
      Gh(H)          -2.389482150000     4.019167790000     5.401950410000     1.007825032230
      Gh(H)          -3.747714110000     0.471479300000    -1.215575120000     1.007825032230
      Gh(C)          -1.418597820000     2.985005000000     3.844051900000    12.000000000000
      Gh(C)          -3.322637810000     2.286288140000     1.912214130000    12.000000000000
         O           -5.531022370000    -4.789765920000   -19.826411740000    15.994914619570
         O           -2.407088860000    -6.820991490000   -21.754978900000    15.994914619570
         H           -0.503048870000    -6.353376770000   -17.165228900000     1.007825032230
         H            0.000000000000    -3.478125970000   -18.713315600000     1.007825032230
         H           -2.389482150000    -3.710001040000   -16.402087570000     1.007825032230
         H           -3.747714110000    -7.257689530000   -23.019613100000     1.007825032230
         C           -1.418597820000    -4.744163830000   -17.959986080000    12.000000000000
         C           -3.322637810000    -5.442880690000   -19.891823850000    12.000000000000

  Charge       = 0
  Multiplicity = 1
  Basis Set: AUG-CC-PVDZ
    Blend: AUG-CC-PVDZ
  Basis Set: (AUG-CC-PVDZ AUX)
    Blend: AUG-CC-PVDZ-JKFIT

    Orbital Energies [Eh]
    ---------------------

    Doubly Occupied:

       1A    -20.629476     2A    -20.552804     3A    -11.396108
       4A    -11.250979     5A     -1.475853     6A     -1.357487
       7A     -1.032999     8A     -0.837930     9A     -0.703066
      10A     -0.688466    11A     -0.657749    12A     -0.576538
      13A     -0.569697    14A     -0.561403    15A     -0.475344
      16A     -0.452434

  @DF-RHF Final Energy:  -227.84408650343556

   => Energetics <=

    Nuclear Repulsion Energy =            121.7484300796052850
    One-Electron Energy =                -552.7483672836124242
    Two-Electron Energy =                 203.1558507005715910
    Total Energy =                       -227.8440865034355625

  Dipole Moment: [D]
     X:     2.1047      Y:    -0.7191      Z:    -0.2116     Total:     2.2342

    SAPT Results
  --------------------------------------------------------------------------------------------------------
    Electrostatics                  0.05126263 [mEh]       0.03216778 [kcal/mol]       0.13459001 [kJ/mol]
      Elst10,r                      0.05126263 [mEh]       0.03216778 [kcal/mol]       0.13459001 [kJ/mol]

    Exchange                        0.00000010 [mEh]       0.00000006 [kcal/mol]       0.00000026 [kJ/mol]
      Exch10                        0.00000010 [mEh]       0.00000006 [kcal/mol]       0.00000026 [kJ/mol]
      Exch10(S^2)                   0.00000010 [mEh]       0.00000006 [kcal/mol]       0.00000026 [kJ/mol]

    Induction                      -0.00041029 [mEh]      -0.00025746 [kcal/mol]      -0.00107721 [kJ/mol]
      Ind20,r                      -0.00036046 [mEh]      -0.00022619 [kcal/mol]      -0.00094639 [kJ/mol]
      Exch-Ind20,r                  0.00000039 [mEh]       0.00000024 [kcal/mol]       0.00000102 [kJ/mol]
      delta HF,r (2)               -0.00005022 [mEh]      -0.00003151 [kcal/mol]      -0.00013185 [kJ/mol]

    Dispersion                     -0.00486483 [mEh]      -0.00305273 [kcal/mol]      -0.01277262 [kJ/mol]
      Disp20                       -0.00486488 [mEh]      -0.00305276 [kcal/mol]      -0.01277273 [kJ/mol]
      Exch-Disp20                   0.00000004 [mEh]       0.00000003 [kcal/mol]       0.00000011 [kJ/mol]
      Disp20 (SS)                  -0.00243244 [mEh]      -0.00152638 [kcal/mol]      -0.00638636 [kJ/mol]
      Disp20 (OS)                  -0.00243244 [mEh]      -0.00152638 [kcal/mol]      -0.00638636 [kJ/mol]
      Exch-Disp20 (SS)              0.00000004 [mEh]       0.00000002 [kcal/mol]       0.00000009 [kJ/mol]
      Exch-Disp20 (OS)              0.00000001 [mEh]       0.00000000 [kcal/mol]       0.00000002 [kJ/mol]

  Total HF                          0.05085244 [mEh]       0.03191039 [kcal/mol]       0.13351305 [kJ/mol]
  Total SAPT0                       0.04598760 [mEh]       0.02885766 [kcal/mol]       0.12074044 [kJ/mol]

  Special recipe for scaled SAPT0 (see Manual):
    Electrostatics sSAPT0           0.05126263 [mEh]       0.03216778 [kcal/mol]       0.13459001 [kJ/mol]
    Exchange sSAPT0                 0.00000010 [mEh]       0.00000006 [kcal/mol]       0.00000026 [kJ/mol]
    Induction sSAPT0               -0.00041029 [mEh]      -0.00025746 [kcal/mol]      -0.00107721 [kJ/mol]
    Dispersion sSAPT0              -0.00486483 [mEh]      -0.00305273 [kcal/mol]      -0.01277262 [kJ/mol]
  Total sSAPT0                      0.04598760 [mEh]       0.02885766 [kcal/mol]       0.12074044 [kJ/mol]
  --------------------------------------------------------------------------------------------------------

*** Psi4 exiting successfully. Buy a developer a beer!
