                               Psi4 1.4rc3

  ==> Input File <==

--------------------------------------------------------------------------
# PSI4 file produced by CrystaLattE

# Generated from:               acetic_acid.xyz
# Psithon input for N-mer:      2mer-0+219
# Number of atoms per monomer:  [8, 8]
# Number of replicas:           2
# COM priority:                 2.858350177282e-05
# Minimum COM separations:      17.307
# Separation priority:          5.457366097701e-05
# Minimum monomer separations:  13.951
# Cutoff priority:              2.070033870228e-06
# Nuclear repulsion energy:     274.8452111812575

memory 7 GB

molecule Dimer_0_219 {
  O           -5.53102237       2.93940290       1.97762624
  O           -2.40708886       0.90817734       0.04905909
  H           -0.50304887       1.37579205       4.63880908
  H            0.00000000       4.25104285       3.09072238
  H           -2.38948215       4.01916779       5.40195041
  H           -3.74771411       0.47147930      -1.21557512
  C           -1.41859782       2.98500500       3.84405190
  C           -3.32263781       2.28628814       1.91221413
--
  O           -5.53102237       2.93940290     -30.72843073
  O           -2.40708886       0.90817734     -32.65699789
  H           -0.50304887       1.37579205     -28.06724789
  H            0.00000000       4.25104285     -29.61533459
  H           -2.38948215       4.01916779     -27.30410656
  H           -3.74771411       0.47147930     -33.92163209
  C           -1.41859782       2.98500500     -28.86200508
  C           -3.32263781       2.28628814     -30.79384284
units = au
no_com
no_reorient
}

set {
  e_convergence 10
  d_convergence 10
  scf_type df
  mp2_type df
  cc_type df
  freeze_core true
}

energy('sapt0/aug-cc-pvdz')

--------------------------------------------------------------------------

  //              Dimer HF             //
    Molecular point group: c1
  Charge       = 0
  Multiplicity = 1
  Basis Set: AUG-CC-PVDZ
    Blend: AUG-CC-PVDZ
  Basis Set: (AUG-CC-PVDZ AUX)
    Blend: AUG-CC-PVDZ-JKFIT
  @DF-RHF Final Energy:  -455.68815010218941
    Total Energy =                       -455.6881501021894110
  //            Monomer A HF           //
    Molecular point group: c1
  Multiplicity = 1
  Basis Set: AUG-CC-PVDZ
    Blend: AUG-CC-PVDZ
  Basis Set: (AUG-CC-PVDZ AUX)
    Blend: AUG-CC-PVDZ-JKFIT
  @DF-RHF Final Energy:  -227.84408589615998
    Total Energy =                       -227.8440858961599815
  //            Monomer B HF           //
    Molecular point group: c1

    Geometry (in Bohr), charge = 0, multiplicity = 1:

       Center              X                  Y                   Z               Mass
    ------------   -----------------  -----------------  -----------------  -----------------
      Gh(O)          -5.531022370000     2.939402900000     1.977626240000    15.994914619570
      Gh(O)          -2.407088860000     0.908177340000     0.049059090000    15.994914619570
      Gh(H)          -0.503048870000     1.375792050000     4.638809080000     1.007825032230
      Gh(H)           0.000000000000     4.251042850000     3.090722380000     1.007825032230
      Gh(H)          -2.389482150000     4.019167790000     5.401950410000     1.007825032230
      Gh(H)          -3.747714110000     0.471479300000    -1.215575120000     1.007825032230
      Gh(C)          -1.418597820000     2.985005000000     3.844051900000    12.000000000000
      Gh(C)          -3.322637810000     2.286288140000     1.912214130000    12.000000000000
         O           -5.531022370000     2.939402900000   -30.728430730000    15.994914619570
         O           -2.407088860000     0.908177340000   -32.656997890000    15.994914619570
         H           -0.503048870000     1.375792050000   -28.067247890000     1.007825032230
         H            0.000000000000     4.251042850000   -29.615334590000     1.007825032230
         H           -2.389482150000     4.019167790000   -27.304106560000     1.007825032230
         H           -3.747714110000     0.471479300000   -33.921632090000     1.007825032230
         C           -1.418597820000     2.985005000000   -28.862005080000    12.000000000000
         C           -3.322637810000     2.286288140000   -30.793842840000    12.000000000000

  Charge       = 0
  Multiplicity = 1
  Basis Set: AUG-CC-PVDZ
    Blend: AUG-CC-PVDZ
  Basis Set: (AUG-CC-PVDZ AUX)
    Blend: AUG-CC-PVDZ-JKFIT

    Orbital Energies [Eh]
    ---------------------

    Doubly Occupied:

       1A    -20.629476     2A    -20.552804     3A    -11.396108
       4A    -11.250979     5A     -1.475853     6A     -1.357486
       7A     -1.032999     8A     -0.837930     9A     -0.703065
      10A     -0.688465    11A     -0.657749    12A     -0.576538
      13A     -0.569697    14A     -0.561403    15A     -0.475343
      16A     -0.452434

  @DF-RHF Final Energy:  -227.84408589354896

   => Energetics <=

    Nuclear Repulsion Energy =            121.7484301769360258
    One-Electron Energy =                -552.7483713596117241
    Two-Electron Energy =                 203.1558552891267198
    Total Energy =                       -227.8440858935489643

  Dipole Moment: [D]
     X:     2.1048      Y:    -0.7191      Z:    -0.2116     Total:     2.2342

    SAPT Results
  --------------------------------------------------------------------------------------------------------
    Electrostatics                  0.02173759 [mEh]       0.01364054 [kcal/mol]       0.05707203 [kJ/mol]
      Elst10,r                      0.02173759 [mEh]       0.01364054 [kcal/mol]       0.05707203 [kJ/mol]

    Exchange                       -0.00000000 [mEh]      -0.00000000 [kcal/mol]      -0.00000000 [kJ/mol]
      Exch10                       -0.00000000 [mEh]      -0.00000000 [kcal/mol]      -0.00000000 [kJ/mol]
      Exch10(S^2)                  -0.00000000 [mEh]      -0.00000000 [kcal/mol]      -0.00000000 [kJ/mol]

    Induction                      -0.00005007 [mEh]      -0.00003142 [kcal/mol]      -0.00013146 [kJ/mol]
      Ind20,r                      -0.00002783 [mEh]      -0.00001746 [kcal/mol]      -0.00007306 [kJ/mol]
      Exch-Ind20,r                  0.00000000 [mEh]       0.00000000 [kcal/mol]       0.00000000 [kJ/mol]
      delta HF,r (2)               -0.00002224 [mEh]      -0.00001396 [kcal/mol]      -0.00005839 [kJ/mol]

    Dispersion                     -0.00049115 [mEh]      -0.00030820 [kcal/mol]      -0.00128952 [kJ/mol]
      Disp20                       -0.00049115 [mEh]      -0.00030820 [kcal/mol]      -0.00128952 [kJ/mol]
      Exch-Disp20                   0.00000000 [mEh]       0.00000000 [kcal/mol]       0.00000000 [kJ/mol]
      Disp20 (SS)                  -0.00024558 [mEh]      -0.00015410 [kcal/mol]      -0.00064476 [kJ/mol]
      Disp20 (OS)                  -0.00024558 [mEh]      -0.00015410 [kcal/mol]      -0.00064476 [kJ/mol]
      Exch-Disp20 (SS)              0.00000000 [mEh]       0.00000000 [kcal/mol]       0.00000000 [kJ/mol]
      Exch-Disp20 (OS)              0.00000000 [mEh]       0.00000000 [kcal/mol]       0.00000000 [kJ/mol]

  Total HF                          0.02168752 [mEh]       0.01360912 [kcal/mol]       0.05694057 [kJ/mol]
  Total SAPT0                       0.02119637 [mEh]       0.01330092 [kcal/mol]       0.05565106 [kJ/mol]

  Special recipe for scaled SAPT0 (see Manual):
    Electrostatics sSAPT0           0.02173759 [mEh]       0.01364054 [kcal/mol]       0.05707203 [kJ/mol]
    Exchange sSAPT0                -0.00000000 [mEh]      -0.00000000 [kcal/mol]      -0.00000000 [kJ/mol]
    Induction sSAPT0               -0.00005007 [mEh]      -0.00003142 [kcal/mol]      -0.00013146 [kJ/mol]
    Dispersion sSAPT0              -0.00049115 [mEh]      -0.00030820 [kcal/mol]      -0.00128952 [kJ/mol]
  Total sSAPT0                      0.02119637 [mEh]       0.01330092 [kcal/mol]       0.05565106 [kJ/mol]
  --------------------------------------------------------------------------------------------------------

*** Psi4 exiting successfully. Buy a developer a beer!
