                               Psi4 1.4rc3

  ==> Input File <==

--------------------------------------------------------------------------
# PSI4 file produced by CrystaLattE

# Generated from:               acetic_acid.xyz
# Psithon input for N-mer:      2mer-0+399
# Number of atoms per monomer:  [8, 8]
# Number of replicas:           2
# COM priority:                 2.086917146014e-05
# Minimum COM separations:      19.221
# Separation priority:          2.839228209341e-05
# Minimum monomer separations:  17.346
# Cutoff priority:              8.661645432563e-07
# Nuclear repulsion energy:     271.5641867468632

memory 7 GB

molecule Dimer_0_399 {
  O           -5.53102237       2.93940290       1.97762624
  O           -2.40708886       0.90817734       0.04905909
  H           -0.50304887       1.37579205       4.63880908
  H            0.00000000       4.25104285       3.09072238
  H           -2.38948215       4.01916779       5.40195041
  H           -3.74771411       0.47147930      -1.21557512
  C           -1.41859782       2.98500500       3.84405190
  C           -3.32263781       2.28628814       1.91221413
--
  O          -17.96136005     -25.97232601      18.33065473
  O          -21.08529356     -23.94110044      16.40208757
  H          -22.98933354     -24.40871515      20.99183757
  H          -23.49238242     -27.28396595      19.44375087
  H          -21.10290027     -27.05209089      21.75497890
  H          -19.74466831     -23.50440240      15.13745337
  C          -22.07378459     -26.01792810      20.19708038
  C          -20.16974460     -25.31921124      18.26524262
units = au
no_com
no_reorient
}

set {
  e_convergence 10
  d_convergence 10
  scf_type df
  mp2_type df
  cc_type df
  freeze_core true
}

energy('sapt0/aug-cc-pvdz')

--------------------------------------------------------------------------

  //              Dimer HF             //
    Molecular point group: c1
  Charge       = 0
  Multiplicity = 1
  Basis Set: AUG-CC-PVDZ
    Blend: AUG-CC-PVDZ
  Basis Set: (AUG-CC-PVDZ AUX)
    Blend: AUG-CC-PVDZ-JKFIT
  @DF-RHF Final Energy:  -455.68818811737617
    Total Energy =                       -455.6881881173761712
  //            Monomer A HF           //
    Molecular point group: c1
  Multiplicity = 1
  Basis Set: AUG-CC-PVDZ
    Blend: AUG-CC-PVDZ
  Basis Set: (AUG-CC-PVDZ AUX)
    Blend: AUG-CC-PVDZ-JKFIT
  @DF-RHF Final Energy:  -227.84408589546089
    Total Energy =                       -227.8440858954608927
  //            Monomer B HF           //
    Molecular point group: c1

    Geometry (in Bohr), charge = 0, multiplicity = 1:

       Center              X                  Y                   Z               Mass
    ------------   -----------------  -----------------  -----------------  -----------------
      Gh(O)          -5.531022370000     2.939402900000     1.977626240000    15.994914619570
      Gh(O)          -2.407088860000     0.908177340000     0.049059090000    15.994914619570
      Gh(H)          -0.503048870000     1.375792050000     4.638809080000     1.007825032230
      Gh(H)           0.000000000000     4.251042850000     3.090722380000     1.007825032230
      Gh(H)          -2.389482150000     4.019167790000     5.401950410000     1.007825032230
      Gh(H)          -3.747714110000     0.471479300000    -1.215575120000     1.007825032230
      Gh(C)          -1.418597820000     2.985005000000     3.844051900000    12.000000000000
      Gh(C)          -3.322637810000     2.286288140000     1.912214130000    12.000000000000
         O          -17.961360050000   -25.972326010000    18.330654730000    15.994914619570
         O          -21.085293560000   -23.941100440000    16.402087570000    15.994914619570
         H          -22.989333540000   -24.408715150000    20.991837570000     1.007825032230
         H          -23.492382420000   -27.283965950000    19.443750870000     1.007825032230
         H          -21.102900270000   -27.052090890000    21.754978900000     1.007825032230
         H          -19.744668310000   -23.504402400000    15.137453370000     1.007825032230
         C          -22.073784590000   -26.017928100000    20.197080380000    12.000000000000
         C          -20.169744600000   -25.319211240000    18.265242620000    12.000000000000

  Charge       = 0
  Multiplicity = 1
  Basis Set: AUG-CC-PVDZ
    Blend: AUG-CC-PVDZ
  Basis Set: (AUG-CC-PVDZ AUX)
    Blend: AUG-CC-PVDZ-JKFIT

    Orbital Energies [Eh]
    ---------------------

    Doubly Occupied:

       1A    -20.629476     2A    -20.552804     3A    -11.396108
       4A    -11.250979     5A     -1.475853     6A     -1.357486
       7A     -1.032999     8A     -0.837930     9A     -0.703065
      10A     -0.688465    11A     -0.657749    12A     -0.576538
      13A     -0.569697    14A     -0.561403    15A     -0.475343
      16A     -0.452434

  @DF-RHF Final Energy:  -227.84408589720093

   => Energetics <=

    Nuclear Repulsion Energy =            121.7484302146746558
    One-Electron Energy =                -552.7483714460781812
    Two-Electron Energy =                 203.1558553342025846
    Total Energy =                       -227.8440858972009266

  Dipole Moment: [D]
     X:    -2.1048      Y:     0.7191      Z:    -0.2116     Total:     2.2342

    SAPT Results
  --------------------------------------------------------------------------------------------------------
    Electrostatics                 -0.01629739 [mEh]      -0.01022677 [kcal/mol]      -0.04278879 [kJ/mol]
      Elst10,r                     -0.01629739 [mEh]      -0.01022677 [kcal/mol]      -0.04278879 [kJ/mol]

    Exchange                       -0.00000000 [mEh]      -0.00000000 [kcal/mol]      -0.00000000 [kJ/mol]
      Exch10                       -0.00000000 [mEh]      -0.00000000 [kcal/mol]      -0.00000000 [kJ/mol]
      Exch10(S^2)                  -0.00000000 [mEh]      -0.00000000 [kcal/mol]      -0.00000000 [kJ/mol]

    Induction                      -0.00002733 [mEh]      -0.00001715 [kcal/mol]      -0.00007175 [kJ/mol]
      Ind20,r                      -0.00001374 [mEh]      -0.00000862 [kcal/mol]      -0.00003607 [kJ/mol]
      Exch-Ind20,r                  0.00000000 [mEh]       0.00000000 [kcal/mol]       0.00000000 [kJ/mol]
      delta HF,r (2)               -0.00001359 [mEh]      -0.00000853 [kcal/mol]      -0.00003568 [kJ/mol]

    Dispersion                     -0.00021510 [mEh]      -0.00013498 [kcal/mol]      -0.00056475 [kJ/mol]
      Disp20                       -0.00021510 [mEh]      -0.00013498 [kcal/mol]      -0.00056475 [kJ/mol]
      Exch-Disp20                   0.00000000 [mEh]       0.00000000 [kcal/mol]       0.00000000 [kJ/mol]
      Disp20 (SS)                  -0.00010755 [mEh]      -0.00006749 [kcal/mol]      -0.00028238 [kJ/mol]
      Disp20 (OS)                  -0.00010755 [mEh]      -0.00006749 [kcal/mol]      -0.00028238 [kJ/mol]
      Exch-Disp20 (SS)              0.00000000 [mEh]       0.00000000 [kcal/mol]       0.00000000 [kJ/mol]
      Exch-Disp20 (OS)              0.00000000 [mEh]       0.00000000 [kcal/mol]       0.00000000 [kJ/mol]

  Total HF                         -0.01632471 [mEh]      -0.01024391 [kcal/mol]      -0.04286053 [kJ/mol]
  Total SAPT0                      -0.01653982 [mEh]      -0.01037889 [kcal/mol]      -0.04342528 [kJ/mol]

  Special recipe for scaled SAPT0 (see Manual):
    Electrostatics sSAPT0          -0.01629739 [mEh]      -0.01022677 [kcal/mol]      -0.04278879 [kJ/mol]
    Exchange sSAPT0                -0.00000000 [mEh]      -0.00000000 [kcal/mol]      -0.00000000 [kJ/mol]
    Induction sSAPT0               -0.00002733 [mEh]      -0.00001715 [kcal/mol]      -0.00007175 [kJ/mol]
    Dispersion sSAPT0              -0.00021510 [mEh]      -0.00013498 [kcal/mol]      -0.00056475 [kJ/mol]
  Total sSAPT0                     -0.01653982 [mEh]      -0.01037889 [kcal/mol]      -0.04342528 [kJ/mol]
  --------------------------------------------------------------------------------------------------------

*** Psi4 exiting successfully. Buy a developer a beer!
