                               Psi4 1.4rc3

  ==> Input File <==

--------------------------------------------------------------------------
# PSI4 file produced by CrystaLattE

# Generated from:               acetic_acid.xyz
# Psithon input for N-mer:      2mer-0+15
# Number of atoms per monomer:  [8, 8]
# Number of replicas:           2
# COM priority:                 2.952404396730e-04
# Minimum COM separations:      7.947
# Separation priority:          6.868144300728e-04
# Minimum monomer separations:  5.998
# Cutoff priority:              6.059719873638e-05
# Nuclear repulsion energy:     311.51150573187

memory 7 GB

molecule Dimer_0_15 {
  O           -5.53102237       2.93940290       1.97762624
  O           -2.40708886       0.90817734       0.04905909
  H           -0.50304887       1.37579205       4.63880908
  H            0.00000000       4.25104285       3.09072238
  H           -2.38948215       4.01916779       5.40195041
  H           -3.74771411       0.47147930      -1.21557512
  C           -1.41859782       2.98500500       3.84405190
  C           -3.32263781       2.28628814       1.91221413
--
  O            7.04519948      -6.64940394       1.97762624
  O           10.16913299      -4.61817837       0.04905909
  H           12.07317298      -5.08579309       4.63880908
  H           12.57622185      -7.96104389       3.09072238
  H           10.18673970      -7.72916883       5.40195041
  H            8.82850774      -4.18148033      -1.21557512
  C           11.15762403      -6.69500604       3.84405190
  C            9.25358404      -5.99628918       1.91221413
units = au
no_com
no_reorient
}

set {
  e_convergence 10
  d_convergence 10
  scf_type df
  mp2_type df
  cc_type df
  freeze_core true
}

energy('sapt0/aug-cc-pvdz')

--------------------------------------------------------------------------

  //              Dimer HF             //
    Molecular point group: c1
  Charge       = 0
  Multiplicity = 1
  Basis Set: AUG-CC-PVDZ
    Blend: AUG-CC-PVDZ
  Basis Set: (AUG-CC-PVDZ AUX)
    Blend: AUG-CC-PVDZ-JKFIT
  @DF-RHF Final Energy:  -455.68828375174149
    Total Energy =                       -455.6882837517414941
  //            Monomer A HF           //
    Molecular point group: c1
  Multiplicity = 1
  Basis Set: AUG-CC-PVDZ
    Blend: AUG-CC-PVDZ
  Basis Set: (AUG-CC-PVDZ AUX)
    Blend: AUG-CC-PVDZ-JKFIT
  @DF-RHF Final Energy:  -227.84409389185660
    Total Energy =                       -227.8440938918566019
  //            Monomer B HF           //
    Molecular point group: c1

    Geometry (in Bohr), charge = 0, multiplicity = 1:

       Center              X                  Y                   Z               Mass
    ------------   -----------------  -----------------  -----------------  -----------------
      Gh(O)          -5.531022370000     2.939402900000     1.977626240000    15.994914619570
      Gh(O)          -2.407088860000     0.908177340000     0.049059090000    15.994914619570
      Gh(H)          -0.503048870000     1.375792050000     4.638809080000     1.007825032230
      Gh(H)           0.000000000000     4.251042850000     3.090722380000     1.007825032230
      Gh(H)          -2.389482150000     4.019167790000     5.401950410000     1.007825032230
      Gh(H)          -3.747714110000     0.471479300000    -1.215575120000     1.007825032230
      Gh(C)          -1.418597820000     2.985005000000     3.844051900000    12.000000000000
      Gh(C)          -3.322637810000     2.286288140000     1.912214130000    12.000000000000
         O            7.045199480000    -6.649403940000     1.977626240000    15.994914619570
         O           10.169132990000    -4.618178370000     0.049059090000    15.994914619570
         H           12.073172980000    -5.085793090000     4.638809080000     1.007825032230
         H           12.576221850000    -7.961043890000     3.090722380000     1.007825032230
         H           10.186739700000    -7.729168830000     5.401950410000     1.007825032230
         H            8.828507740000    -4.181480330000    -1.215575120000     1.007825032230
         C           11.157624030000    -6.695006040000     3.844051900000    12.000000000000
         C            9.253584040000    -5.996289180000     1.912214130000    12.000000000000

  Charge       = 0
  Multiplicity = 1
  Basis Set: AUG-CC-PVDZ
    Blend: AUG-CC-PVDZ
  Basis Set: (AUG-CC-PVDZ AUX)
    Blend: AUG-CC-PVDZ-JKFIT

    Orbital Energies [Eh]
    ---------------------

    Doubly Occupied:

       1A    -20.629481     2A    -20.552817     3A    -11.396111
       4A    -11.250977     5A     -1.475853     6A     -1.357487
       7A     -1.033000     8A     -0.837931     9A     -0.703066
      10A     -0.688466    11A     -0.657749    12A     -0.576538
      13A     -0.569697    14A     -0.561404    15A     -0.475346
      16A     -0.452435

  @DF-RHF Final Energy:  -227.84409984841531

   => Energetics <=

    Nuclear Repulsion Energy =            121.7484301304222925
    One-Electron Energy =                -552.7483410099150660
    Two-Electron Energy =                 203.1558110310774339
    Total Energy =                       -227.8440998484153113

  Dipole Moment: [D]
     X:     2.1040      Y:     0.7187      Z:    -0.2117     Total:     2.2334

    SAPT Results
  --------------------------------------------------------------------------------------------------------
    Electrostatics                 -0.08445826 [mEh]      -0.05299836 [kcal/mol]      -0.22174513 [kJ/mol]
      Elst10,r                     -0.08445826 [mEh]      -0.05299836 [kcal/mol]      -0.22174513 [kJ/mol]

    Exchange                        0.00001184 [mEh]       0.00000743 [kcal/mol]       0.00003109 [kJ/mol]
      Exch10                        0.00001184 [mEh]       0.00000743 [kcal/mol]       0.00003109 [kJ/mol]
      Exch10(S^2)                   0.00001184 [mEh]       0.00000743 [kcal/mol]       0.00003109 [kJ/mol]

    Induction                      -0.00556505 [mEh]      -0.00349212 [kcal/mol]      -0.01461104 [kJ/mol]
      Ind20,r                      -0.00530012 [mEh]      -0.00332588 [kcal/mol]      -0.01391547 [kJ/mol]
      Exch-Ind20,r                  0.00001252 [mEh]       0.00000786 [kcal/mol]       0.00003287 [kJ/mol]
      delta HF,r (2)               -0.00027745 [mEh]      -0.00017410 [kcal/mol]      -0.00072843 [kJ/mol]

    Dispersion                     -0.05956439 [mEh]      -0.03737722 [kcal/mol]      -0.15638628 [kJ/mol]
      Disp20                       -0.05956972 [mEh]      -0.03738056 [kcal/mol]      -0.15640027 [kJ/mol]
      Exch-Disp20                   0.00000533 [mEh]       0.00000334 [kcal/mol]       0.00001399 [kJ/mol]
      Disp20 (SS)                  -0.02978486 [mEh]      -0.01869028 [kcal/mol]      -0.07820013 [kJ/mol]
      Disp20 (OS)                  -0.02978486 [mEh]      -0.01869028 [kcal/mol]      -0.07820013 [kJ/mol]
      Exch-Disp20 (SS)              0.00000431 [mEh]       0.00000270 [kcal/mol]       0.00001131 [kJ/mol]
      Exch-Disp20 (OS)              0.00000102 [mEh]       0.00000064 [kcal/mol]       0.00000268 [kJ/mol]

  Total HF                         -0.09001147 [mEh]      -0.05648305 [kcal/mol]      -0.23632508 [kJ/mol]
  Total SAPT0                      -0.14957586 [mEh]      -0.09386027 [kcal/mol]      -0.39271136 [kJ/mol]

  Special recipe for scaled SAPT0 (see Manual):
    Electrostatics sSAPT0          -0.08445826 [mEh]      -0.05299836 [kcal/mol]      -0.22174513 [kJ/mol]
    Exchange sSAPT0                 0.00001184 [mEh]       0.00000743 [kcal/mol]       0.00003109 [kJ/mol]
    Induction sSAPT0               -0.00556505 [mEh]      -0.00349212 [kcal/mol]      -0.01461104 [kJ/mol]
    Dispersion sSAPT0              -0.05956439 [mEh]      -0.03737722 [kcal/mol]      -0.15638628 [kJ/mol]
  Total sSAPT0                     -0.14957586 [mEh]      -0.09386027 [kcal/mol]      -0.39271136 [kJ/mol]
  --------------------------------------------------------------------------------------------------------

*** Psi4 exiting successfully. Buy a developer a beer!
