                               Psi4 1.4rc3

  ==> Input File <==

--------------------------------------------------------------------------
# PSI4 file produced by CrystaLattE

# Generated from:               acetic_acid.xyz
# Psithon input for N-mer:      2mer-0+55
# Number of atoms per monomer:  [8, 8]
# Number of replicas:           2
# COM priority:                 9.333903710269e-05
# Minimum COM separations:      11.666
# Separation priority:          1.673767119060e-04
# Minimum monomer separations:  9.602
# Cutoff priority:              9.224157488355e-06
# Nuclear repulsion energy:     289.85396182233524

memory 7 GB

molecule Dimer_0_55 {
  O           -5.53102237       2.93940290       1.97762624
  O           -2.40708886       0.90817734       0.04905909
  H           -0.50304887       1.37579205       4.63880908
  H            0.00000000       4.25104285       3.09072238
  H           -2.38948215       4.01916779       5.40195041
  H           -3.74771411       0.47147930      -1.21557512
  C           -1.41859782       2.98500500       3.84405190
  C           -3.32263781       2.28628814       1.91221413
--
  O            7.19108365     -18.24315718      -3.47338325
  O            4.06715015     -16.21193161      -5.40195041
  H            2.16311016     -16.67954633      -0.81220041
  H            1.66006128     -19.55479713      -2.36028711
  H            4.04954344     -19.32292206      -0.04905909
  H            5.40777540     -15.77523357      -6.66658461
  C            3.07865911     -18.28875928      -1.60695760
  C            4.98269910     -17.59004241      -3.53879536
units = au
no_com
no_reorient
}

set {
  e_convergence 10
  d_convergence 10
  scf_type df
  mp2_type df
  cc_type df
  freeze_core true
}

energy('sapt0/aug-cc-pvdz')

--------------------------------------------------------------------------

  //              Dimer HF             //
    Molecular point group: c1
  Charge       = 0
  Multiplicity = 1
  Basis Set: AUG-CC-PVDZ
    Blend: AUG-CC-PVDZ
  Basis Set: (AUG-CC-PVDZ AUX)
    Blend: AUG-CC-PVDZ-JKFIT
  @DF-RHF Final Energy:  -455.68815940673846
    Total Energy =                       -455.6881594067384640
  //            Monomer A HF           //
    Molecular point group: c1
  Multiplicity = 1
  Basis Set: AUG-CC-PVDZ
    Blend: AUG-CC-PVDZ
  Basis Set: (AUG-CC-PVDZ AUX)
    Blend: AUG-CC-PVDZ-JKFIT
  @DF-RHF Final Energy:  -227.84408600847212
    Total Energy =                       -227.8440860084721180
  //            Monomer B HF           //
    Molecular point group: c1

    Geometry (in Bohr), charge = 0, multiplicity = 1:

       Center              X                  Y                   Z               Mass
    ------------   -----------------  -----------------  -----------------  -----------------
      Gh(O)          -5.531022370000     2.939402900000     1.977626240000    15.994914619570
      Gh(O)          -2.407088860000     0.908177340000     0.049059090000    15.994914619570
      Gh(H)          -0.503048870000     1.375792050000     4.638809080000     1.007825032230
      Gh(H)           0.000000000000     4.251042850000     3.090722380000     1.007825032230
      Gh(H)          -2.389482150000     4.019167790000     5.401950410000     1.007825032230
      Gh(H)          -3.747714110000     0.471479300000    -1.215575120000     1.007825032230
      Gh(C)          -1.418597820000     2.985005000000     3.844051900000    12.000000000000
      Gh(C)          -3.322637810000     2.286288140000     1.912214130000    12.000000000000
         O            7.191083650000   -18.243157180000    -3.473383250000    15.994914619570
         O            4.067150150000   -16.211931610000    -5.401950410000    15.994914619570
         H            2.163110160000   -16.679546330000    -0.812200410000     1.007825032230
         H            1.660061280000   -19.554797130000    -2.360287110000     1.007825032230
         H            4.049543440000   -19.322922060000    -0.049059090000     1.007825032230
         H            5.407775400000   -15.775233570000    -6.666584610000     1.007825032230
         C            3.078659110000   -18.288759280000    -1.606957600000    12.000000000000
         C            4.982699100000   -17.590042410000    -3.538795360000    12.000000000000

  Charge       = 0
  Multiplicity = 1
  Basis Set: AUG-CC-PVDZ
    Blend: AUG-CC-PVDZ
  Basis Set: (AUG-CC-PVDZ AUX)
    Blend: AUG-CC-PVDZ-JKFIT

    Orbital Energies [Eh]
    ---------------------

    Doubly Occupied:

       1A    -20.629476     2A    -20.552804     3A    -11.396108
       4A    -11.250979     5A     -1.475853     6A     -1.357486
       7A     -1.032999     8A     -0.837930     9A     -0.703065
      10A     -0.688465    11A     -0.657749    12A     -0.576538
      13A     -0.569697    14A     -0.561403    15A     -0.475343
      16A     -0.452434

  @DF-RHF Final Energy:  -227.84408607230165

   => Energetics <=

    Nuclear Repulsion Energy =            121.7484302569210541
    One-Electron Energy =                -552.7483721462890571
    Two-Electron Energy =                 203.1558558170663673
    Total Energy =                       -227.8440860723016499

  Dipole Moment: [D]
     X:    -2.1047      Y:     0.7191      Z:    -0.2116     Total:     2.2342

    SAPT Results
  --------------------------------------------------------------------------------------------------------
    Electrostatics                  0.01289604 [mEh]       0.00809239 [kcal/mol]       0.03385855 [kJ/mol]
      Elst10,r                      0.01289604 [mEh]       0.00809239 [kcal/mol]       0.03385855 [kJ/mol]

    Exchange                        0.00000006 [mEh]       0.00000004 [kcal/mol]       0.00000017 [kJ/mol]
      Exch10                        0.00000006 [mEh]       0.00000004 [kcal/mol]       0.00000017 [kJ/mol]
      Exch10(S^2)                   0.00000006 [mEh]       0.00000004 [kcal/mol]       0.00000017 [kJ/mol]

    Induction                      -0.00022207 [mEh]      -0.00013935 [kcal/mol]      -0.00058304 [kJ/mol]
      Ind20,r                      -0.00016512 [mEh]      -0.00010361 [kcal/mol]      -0.00043352 [kJ/mol]
      Exch-Ind20,r                  0.00000022 [mEh]       0.00000014 [kcal/mol]       0.00000058 [kJ/mol]
      delta HF,r (2)               -0.00005717 [mEh]      -0.00003588 [kcal/mol]      -0.00015011 [kJ/mol]

    Dispersion                     -0.00507437 [mEh]      -0.00318421 [kcal/mol]      -0.01332275 [kJ/mol]
      Disp20                       -0.00507439 [mEh]      -0.00318423 [kcal/mol]      -0.01332280 [kJ/mol]
      Exch-Disp20                   0.00000002 [mEh]       0.00000001 [kcal/mol]       0.00000005 [kJ/mol]
      Disp20 (SS)                  -0.00253719 [mEh]      -0.00159211 [kcal/mol]      -0.00666140 [kJ/mol]
      Disp20 (OS)                  -0.00253719 [mEh]      -0.00159211 [kcal/mol]      -0.00666140 [kJ/mol]
      Exch-Disp20 (SS)              0.00000002 [mEh]       0.00000001 [kcal/mol]       0.00000004 [kJ/mol]
      Exch-Disp20 (OS)              0.00000000 [mEh]       0.00000000 [kcal/mol]       0.00000001 [kJ/mol]

  Total HF                          0.01267404 [mEh]       0.00795308 [kcal/mol]       0.03327568 [kJ/mol]
  Total SAPT0                       0.00759967 [mEh]       0.00476886 [kcal/mol]       0.01995293 [kJ/mol]

  Special recipe for scaled SAPT0 (see Manual):
    Electrostatics sSAPT0           0.01289604 [mEh]       0.00809239 [kcal/mol]       0.03385855 [kJ/mol]
    Exchange sSAPT0                 0.00000006 [mEh]       0.00000004 [kcal/mol]       0.00000017 [kJ/mol]
    Induction sSAPT0               -0.00022207 [mEh]      -0.00013935 [kcal/mol]      -0.00058304 [kJ/mol]
    Dispersion sSAPT0              -0.00507437 [mEh]      -0.00318421 [kcal/mol]      -0.01332275 [kJ/mol]
  Total sSAPT0                      0.00759967 [mEh]       0.00476886 [kcal/mol]       0.01995293 [kJ/mol]
  --------------------------------------------------------------------------------------------------------

*** Psi4 exiting successfully. Buy a developer a beer!
