                               Psi4 1.4rc3

  ==> Input File <==

--------------------------------------------------------------------------
# PSI4 file produced by CrystaLattE

# Generated from:               acetic_acid.xyz
# Psithon input for N-mer:      2mer-0+427
# Number of atoms per monomer:  [8, 8]
# Number of replicas:           2
# COM priority:                 1.544574573123e-05
# Minimum COM separations:      21.249
# Separation priority:          2.257099652166e-05
# Minimum monomer separations:  18.725
# Cutoff priority:              6.378731353244e-07
# Nuclear repulsion energy:     268.9847178231635

memory 7 GB

molecule Dimer_0_427 {
  O           -5.53102237       2.93940290       1.97762624
  O           -2.40708886       0.90817734       0.04905909
  H           -0.50304887       1.37579205       4.63880908
  H            0.00000000       4.25104285       3.09072238
  H           -2.38948215       4.01916779       5.40195041
  H           -3.74771411       0.47147930      -1.21557512
  C           -1.41859782       2.98500500       3.84405190
  C           -3.32263781       2.28628814       1.91221413
--
  O           -5.53102237     -35.70644122      -8.92439275
  O           -2.40708886     -37.73766679     -10.85295990
  H           -0.50304887     -37.27005208      -6.26320991
  H            0.00000000     -34.39480127      -7.81129661
  H           -2.38948215     -34.62667634      -5.50006858
  H           -3.74771411     -38.17436483     -12.11759411
  C           -1.41859782     -35.66083913      -7.05796709
  C           -3.32263781     -36.35955599      -8.98980486
units = au
no_com
no_reorient
}

set {
  e_convergence 10
  d_convergence 10
  scf_type df
  mp2_type df
  cc_type df
  freeze_core true
}

energy('sapt0/aug-cc-pvdz')

--------------------------------------------------------------------------

  //              Dimer HF             //
    Molecular point group: c1
  Charge       = 0
  Multiplicity = 1
  Basis Set: AUG-CC-PVDZ
    Blend: AUG-CC-PVDZ
  Basis Set: (AUG-CC-PVDZ AUX)
    Blend: AUG-CC-PVDZ-JKFIT
  @DF-RHF Final Energy:  -455.68816494405706
    Total Energy =                       -455.6881649440570641
  //            Monomer A HF           //
    Molecular point group: c1
  Multiplicity = 1
  Basis Set: AUG-CC-PVDZ
    Blend: AUG-CC-PVDZ
  Basis Set: (AUG-CC-PVDZ AUX)
    Blend: AUG-CC-PVDZ-JKFIT
  @DF-RHF Final Energy:  -227.84408589608654
    Total Energy =                       -227.8440858960865398
  //            Monomer B HF           //
    Molecular point group: c1

    Geometry (in Bohr), charge = 0, multiplicity = 1:

       Center              X                  Y                   Z               Mass
    ------------   -----------------  -----------------  -----------------  -----------------
      Gh(O)          -5.531022370000     2.939402900000     1.977626240000    15.994914619570
      Gh(O)          -2.407088860000     0.908177340000     0.049059090000    15.994914619570
      Gh(H)          -0.503048870000     1.375792050000     4.638809080000     1.007825032230
      Gh(H)           0.000000000000     4.251042850000     3.090722380000     1.007825032230
      Gh(H)          -2.389482150000     4.019167790000     5.401950410000     1.007825032230
      Gh(H)          -3.747714110000     0.471479300000    -1.215575120000     1.007825032230
      Gh(C)          -1.418597820000     2.985005000000     3.844051900000    12.000000000000
      Gh(C)          -3.322637810000     2.286288140000     1.912214130000    12.000000000000
         O           -5.531022370000   -35.706441220000    -8.924392750000    15.994914619570
         O           -2.407088860000   -37.737666790000   -10.852959900000    15.994914619570
         H           -0.503048870000   -37.270052080000    -6.263209910000     1.007825032230
         H            0.000000000000   -34.394801270000    -7.811296610000     1.007825032230
         H           -2.389482150000   -34.626676340000    -5.500068580000     1.007825032230
         H           -3.747714110000   -38.174364830000   -12.117594110000     1.007825032230
         C           -1.418597820000   -35.660839130000    -7.057967090000    12.000000000000
         C           -3.322637810000   -36.359555990000    -8.989804860000    12.000000000000

  Charge       = 0
  Multiplicity = 1
  Basis Set: AUG-CC-PVDZ
    Blend: AUG-CC-PVDZ
  Basis Set: (AUG-CC-PVDZ AUX)
    Blend: AUG-CC-PVDZ-JKFIT

    Orbital Energies [Eh]
    ---------------------

    Doubly Occupied:

       1A    -20.629476     2A    -20.552804     3A    -11.396108
       4A    -11.250979     5A     -1.475853     6A     -1.357486
       7A     -1.032999     8A     -0.837930     9A     -0.703065
      10A     -0.688465    11A     -0.657749    12A     -0.576538
      13A     -0.569697    14A     -0.561403    15A     -0.475343
      16A     -0.452434

  @DF-RHF Final Energy:  -227.84408589499174

   => Energetics <=

    Nuclear Repulsion Energy =            121.7484301522182193
    One-Electron Energy =                -552.7483713230335525
    Two-Electron Energy =                 203.1558552758235692
    Total Energy =                       -227.8440858949917356

  Dipole Moment: [D]
     X:     2.1048      Y:    -0.7191      Z:    -0.2116     Total:     2.2342

    SAPT Results
  --------------------------------------------------------------------------------------------------------
    Electrostatics                  0.00687223 [mEh]       0.00431239 [kcal/mol]       0.01804304 [kJ/mol]
      Elst10,r                      0.00687223 [mEh]       0.00431239 [kcal/mol]       0.01804304 [kJ/mol]

    Exchange                       -0.00000000 [mEh]      -0.00000000 [kcal/mol]      -0.00000000 [kJ/mol]
      Exch10                       -0.00000000 [mEh]      -0.00000000 [kcal/mol]      -0.00000000 [kJ/mol]
      Exch10(S^2)                  -0.00000000 [mEh]      -0.00000000 [kcal/mol]      -0.00000000 [kJ/mol]

    Induction                      -0.00002521 [mEh]      -0.00001582 [kcal/mol]      -0.00006619 [kJ/mol]
      Ind20,r                      -0.00000807 [mEh]      -0.00000506 [kcal/mol]      -0.00002119 [kJ/mol]
      Exch-Ind20,r                  0.00000000 [mEh]       0.00000000 [kcal/mol]       0.00000000 [kJ/mol]
      delta HF,r (2)               -0.00001714 [mEh]      -0.00001075 [kcal/mol]      -0.00004500 [kJ/mol]

    Dispersion                     -0.00013237 [mEh]      -0.00008306 [kcal/mol]      -0.00034754 [kJ/mol]
      Disp20                       -0.00013237 [mEh]      -0.00008306 [kcal/mol]      -0.00034754 [kJ/mol]
      Exch-Disp20                   0.00000000 [mEh]       0.00000000 [kcal/mol]       0.00000000 [kJ/mol]
      Disp20 (SS)                  -0.00006618 [mEh]      -0.00004153 [kcal/mol]      -0.00017377 [kJ/mol]
      Disp20 (OS)                  -0.00006618 [mEh]      -0.00004153 [kcal/mol]      -0.00017377 [kJ/mol]
      Exch-Disp20 (SS)              0.00000000 [mEh]       0.00000000 [kcal/mol]       0.00000000 [kJ/mol]
      Exch-Disp20 (OS)              0.00000000 [mEh]       0.00000000 [kcal/mol]       0.00000000 [kJ/mol]

  Total HF                          0.00684702 [mEh]       0.00429657 [kcal/mol]       0.01797685 [kJ/mol]
  Total SAPT0                       0.00671465 [mEh]       0.00421351 [kcal/mol]       0.01762932 [kJ/mol]

  Special recipe for scaled SAPT0 (see Manual):
    Electrostatics sSAPT0           0.00687223 [mEh]       0.00431239 [kcal/mol]       0.01804304 [kJ/mol]
    Exchange sSAPT0                -0.00000000 [mEh]      -0.00000000 [kcal/mol]      -0.00000000 [kJ/mol]
    Induction sSAPT0               -0.00002521 [mEh]      -0.00001582 [kcal/mol]      -0.00006619 [kJ/mol]
    Dispersion sSAPT0              -0.00013237 [mEh]      -0.00008306 [kcal/mol]      -0.00034754 [kJ/mol]
  Total sSAPT0                      0.00671465 [mEh]       0.00421351 [kcal/mol]       0.01762932 [kJ/mol]
  --------------------------------------------------------------------------------------------------------

*** Psi4 exiting successfully. Buy a developer a beer!
