                               Psi4 1.4rc3

  ==> Input File <==

--------------------------------------------------------------------------
# PSI4 file produced by CrystaLattE

# Generated from:               acetic_acid.xyz
# Psithon input for N-mer:      2mer-0+488
# Number of atoms per monomer:  [8, 8]
# Number of replicas:           2
# COM priority:                 1.724755973718e-05
# Minimum COM separations:      20.481
# Separation priority:          2.097747693180e-05
# Minimum monomer separations:  19.187
# Cutoff priority:              5.785456993465e-07
# Nuclear repulsion energy:     269.84811175521173

memory 7 GB

molecule Dimer_0_488 {
  O           -5.53102237       2.93940290       1.97762624
  O           -2.40708886       0.90817734       0.04905909
  H           -0.50304887       1.37579205       4.63880908
  H            0.00000000       4.25104285       3.09072238
  H           -2.38948215       4.01916779       5.40195041
  H           -3.74771411       0.47147930      -1.21557512
  C           -1.41859782       2.98500500       3.84405190
  C           -3.32263781       2.28628814       1.91221413
--
  O           -5.38513820     -31.84185681      18.33065473
  O           -8.50907170     -33.87308238      16.40208757
  H          -10.41311169     -33.40546766      20.99183757
  H          -10.91616057     -30.53021686      19.44375087
  H           -8.52667842     -30.76209193      21.75497890
  H           -7.16844646     -34.30978042      15.13745337
  C           -9.49756274     -31.79625472      20.19708038
  C           -7.59352275     -32.49497158      18.26524262
units = au
no_com
no_reorient
}

set {
  e_convergence 10
  d_convergence 10
  scf_type df
  mp2_type df
  cc_type df
  freeze_core true
}

energy('sapt0/aug-cc-pvdz')

--------------------------------------------------------------------------

  //              Dimer HF             //
    Molecular point group: c1
  Charge       = 0
  Multiplicity = 1
  Basis Set: AUG-CC-PVDZ
    Blend: AUG-CC-PVDZ
  Basis Set: (AUG-CC-PVDZ AUX)
    Blend: AUG-CC-PVDZ-JKFIT
  @DF-RHF Final Energy:  -455.68818498667440
    Total Energy =                       -455.6881849866744005
  //            Monomer A HF           //
    Molecular point group: c1
  Multiplicity = 1
  Basis Set: AUG-CC-PVDZ
    Blend: AUG-CC-PVDZ
  Basis Set: (AUG-CC-PVDZ AUX)
    Blend: AUG-CC-PVDZ-JKFIT
  @DF-RHF Final Energy:  -227.84408589513561
    Total Energy =                       -227.8440858951356063
  //            Monomer B HF           //
    Molecular point group: c1

    Geometry (in Bohr), charge = 0, multiplicity = 1:

       Center              X                  Y                   Z               Mass
    ------------   -----------------  -----------------  -----------------  -----------------
      Gh(O)          -5.531022370000     2.939402900000     1.977626240000    15.994914619570
      Gh(O)          -2.407088860000     0.908177340000     0.049059090000    15.994914619570
      Gh(H)          -0.503048870000     1.375792050000     4.638809080000     1.007825032230
      Gh(H)           0.000000000000     4.251042850000     3.090722380000     1.007825032230
      Gh(H)          -2.389482150000     4.019167790000     5.401950410000     1.007825032230
      Gh(H)          -3.747714110000     0.471479300000    -1.215575120000     1.007825032230
      Gh(C)          -1.418597820000     2.985005000000     3.844051900000    12.000000000000
      Gh(C)          -3.322637810000     2.286288140000     1.912214130000    12.000000000000
         O           -5.385138200000   -31.841856810000    18.330654730000    15.994914619570
         O           -8.509071700000   -33.873082380000    16.402087570000    15.994914619570
         H          -10.413111690000   -33.405467660000    20.991837570000     1.007825032230
         H          -10.916160570000   -30.530216860000    19.443750870000     1.007825032230
         H           -8.526678420000   -30.762091930000    21.754978900000     1.007825032230
         H           -7.168446460000   -34.309780420000    15.137453370000     1.007825032230
         C           -9.497562740000   -31.796254720000    20.197080380000    12.000000000000
         C           -7.593522750000   -32.494971580000    18.265242620000    12.000000000000

  Charge       = 0
  Multiplicity = 1
  Basis Set: AUG-CC-PVDZ
    Blend: AUG-CC-PVDZ
  Basis Set: (AUG-CC-PVDZ AUX)
    Blend: AUG-CC-PVDZ-JKFIT

    Orbital Energies [Eh]
    ---------------------

    Doubly Occupied:

       1A    -20.629476     2A    -20.552804     3A    -11.396108
       4A    -11.250979     5A     -1.475853     6A     -1.357486
       7A     -1.032999     8A     -0.837930     9A     -0.703065
      10A     -0.688465    11A     -0.657749    12A     -0.576538
      13A     -0.569697    14A     -0.561403    15A     -0.475343
      16A     -0.452434

  @DF-RHF Final Energy:  -227.84408589619076

   => Energetics <=

    Nuclear Repulsion Energy =            121.7484302780868859
    One-Electron Energy =                -552.7483715649808573
    Two-Electron Energy =                 203.1558553907032376
    Total Energy =                       -227.8440858961907622

  Dipole Moment: [D]
     X:    -2.1048      Y:    -0.7191      Z:    -0.2116     Total:     2.2342

    SAPT Results
  --------------------------------------------------------------------------------------------------------
    Electrostatics                 -0.01316935 [mEh]      -0.00826389 [kcal/mol]      -0.03457613 [kJ/mol]
      Elst10,r                     -0.01316935 [mEh]      -0.00826389 [kcal/mol]      -0.03457613 [kJ/mol]

    Exchange                       -0.00000000 [mEh]      -0.00000000 [kcal/mol]      -0.00000000 [kJ/mol]
      Exch10                       -0.00000000 [mEh]      -0.00000000 [kcal/mol]      -0.00000000 [kJ/mol]
      Exch10(S^2)                  -0.00000000 [mEh]      -0.00000000 [kcal/mol]      -0.00000000 [kJ/mol]

    Induction                      -0.00002600 [mEh]      -0.00001631 [kcal/mol]      -0.00006825 [kJ/mol]
      Ind20,r                      -0.00001063 [mEh]      -0.00000667 [kcal/mol]      -0.00002791 [kJ/mol]
      Exch-Ind20,r                  0.00000000 [mEh]       0.00000000 [kcal/mol]       0.00000000 [kJ/mol]
      delta HF,r (2)               -0.00001536 [mEh]      -0.00000964 [kcal/mol]      -0.00004034 [kJ/mol]

    Dispersion                     -0.00014733 [mEh]      -0.00009245 [kcal/mol]      -0.00038681 [kJ/mol]
      Disp20                       -0.00014733 [mEh]      -0.00009245 [kcal/mol]      -0.00038681 [kJ/mol]
      Exch-Disp20                   0.00000000 [mEh]       0.00000000 [kcal/mol]       0.00000000 [kJ/mol]
      Disp20 (SS)                  -0.00007366 [mEh]      -0.00004623 [kcal/mol]      -0.00019341 [kJ/mol]
      Disp20 (OS)                  -0.00007366 [mEh]      -0.00004623 [kcal/mol]      -0.00019341 [kJ/mol]
      Exch-Disp20 (SS)              0.00000000 [mEh]       0.00000000 [kcal/mol]       0.00000000 [kJ/mol]
      Exch-Disp20 (OS)              0.00000000 [mEh]       0.00000000 [kcal/mol]       0.00000000 [kJ/mol]

  Total HF                         -0.01319535 [mEh]      -0.00828021 [kcal/mol]      -0.03464438 [kJ/mol]
  Total SAPT0                      -0.01334268 [mEh]      -0.00837266 [kcal/mol]      -0.03503119 [kJ/mol]

  Special recipe for scaled SAPT0 (see Manual):
    Electrostatics sSAPT0          -0.01316935 [mEh]      -0.00826389 [kcal/mol]      -0.03457613 [kJ/mol]
    Exchange sSAPT0                -0.00000000 [mEh]      -0.00000000 [kcal/mol]      -0.00000000 [kJ/mol]
    Induction sSAPT0               -0.00002600 [mEh]      -0.00001631 [kcal/mol]      -0.00006825 [kJ/mol]
    Dispersion sSAPT0              -0.00014733 [mEh]      -0.00009245 [kcal/mol]      -0.00038681 [kJ/mol]
  Total sSAPT0                     -0.01334268 [mEh]      -0.00837266 [kcal/mol]      -0.03503119 [kJ/mol]
  --------------------------------------------------------------------------------------------------------

*** Psi4 exiting successfully. Buy a developer a beer!
