                               Psi4 1.4rc3

  ==> Input File <==

--------------------------------------------------------------------------
# PSI4 file produced by CrystaLattE

# Generated from:               acetic_acid.xyz
# Psithon input for N-mer:      2mer-0+1
# Number of atoms per monomer:  [8, 8]
# Number of replicas:           2
# COM priority:                 8.354221209672e-04
# Minimum COM separations:      5.619
# Separation priority:          7.472645332208e-03
# Minimum monomer separations:  2.707
# Cutoff priority:              1.460940381908e-03
# Nuclear repulsion energy:     342.08620512217055

memory 7 GB

molecule Dimer_0_1 {
  O           -5.53102237       2.93940290       1.97762624
  O           -2.40708886       0.90817734       0.04905909
  H           -0.50304887       1.37579205       4.63880908
  H            0.00000000       4.25104285       3.09072238
  H           -2.38948215       4.01916779       5.40195041
  H           -3.74771411       0.47147930      -1.21557512
  C           -1.41859782       2.98500500       3.84405190
  C           -3.32263781       2.28628814       1.91221413
--
  O            7.19108365      -2.78481953      -3.47338325
  O            4.06715015      -0.75359396      -5.40195041
  H            2.16311016      -1.22120867      -0.81220041
  H            1.66006128      -4.09645948      -2.36028711
  H            4.04954344      -3.86458441      -0.04905909
  H            5.40777540      -0.31689592      -6.66658461
  C            3.07865911      -2.83042162      -1.60695760
  C            4.98269910      -2.13170476      -3.53879536
units = au
no_com
no_reorient
}

set {
  e_convergence 10
  d_convergence 10
  scf_type df
  mp2_type df
  cc_type df
  freeze_core true
}

energy('sapt0/aug-cc-pvdz')

--------------------------------------------------------------------------

  //              Dimer HF             //
    Molecular point group: c1
  Charge       = 0
  Multiplicity = 1
  Basis Set: AUG-CC-PVDZ
    Blend: AUG-CC-PVDZ
  Basis Set: (AUG-CC-PVDZ AUX)
    Blend: AUG-CC-PVDZ-JKFIT
  @DF-RHF Final Energy:  -455.68841847084536
    Total Energy =                       -455.6884184708453631
  //            Monomer A HF           //
    Molecular point group: c1
  Multiplicity = 1
  Basis Set: AUG-CC-PVDZ
    Blend: AUG-CC-PVDZ
  Basis Set: (AUG-CC-PVDZ AUX)
    Blend: AUG-CC-PVDZ-JKFIT
  @DF-RHF Final Energy:  -227.84426178176449
    Total Energy =                       -227.8442617817644873
  //            Monomer B HF           //
    Molecular point group: c1

    Geometry (in Bohr), charge = 0, multiplicity = 1:

       Center              X                  Y                   Z               Mass
    ------------   -----------------  -----------------  -----------------  -----------------
      Gh(O)          -5.531022370000     2.939402900000     1.977626240000    15.994914619570
      Gh(O)          -2.407088860000     0.908177340000     0.049059090000    15.994914619570
      Gh(H)          -0.503048870000     1.375792050000     4.638809080000     1.007825032230
      Gh(H)           0.000000000000     4.251042850000     3.090722380000     1.007825032230
      Gh(H)          -2.389482150000     4.019167790000     5.401950410000     1.007825032230
      Gh(H)          -3.747714110000     0.471479300000    -1.215575120000     1.007825032230
      Gh(C)          -1.418597820000     2.985005000000     3.844051900000    12.000000000000
      Gh(C)          -3.322637810000     2.286288140000     1.912214130000    12.000000000000
         O            7.191083650000    -2.784819530000    -3.473383250000    15.994914619570
         O            4.067150150000    -0.753593960000    -5.401950410000    15.994914619570
         H            2.163110160000    -1.221208670000    -0.812200410000     1.007825032230
         H            1.660061280000    -4.096459480000    -2.360287110000     1.007825032230
         H            4.049543440000    -3.864584410000    -0.049059090000     1.007825032230
         H            5.407775400000    -0.316895920000    -6.666584610000     1.007825032230
         C            3.078659110000    -2.830421620000    -1.606957600000    12.000000000000
         C            4.982699100000    -2.131704760000    -3.538795360000    12.000000000000

  Charge       = 0
  Multiplicity = 1
  Basis Set: AUG-CC-PVDZ
    Blend: AUG-CC-PVDZ
  Basis Set: (AUG-CC-PVDZ AUX)
    Blend: AUG-CC-PVDZ-JKFIT

    Orbital Energies [Eh]
    ---------------------

    Doubly Occupied:

       1A    -20.629492     2A    -20.552805     3A    -11.396105
       4A    -11.250941     5A     -1.475834     6A     -1.357473
       7A     -1.032985     8A     -0.837913     9A     -0.703051
      10A     -0.688452    11A     -0.657736    12A     -0.576525
      13A     -0.569690    14A     -0.561388    15A     -0.475336
      16A     -0.452426

  @DF-RHF Final Energy:  -227.84419560269330

   => Energetics <=

    Nuclear Repulsion Energy =            121.7484302625347254
    One-Electron Energy =                -552.7489485607680990
    Two-Electron Energy =                 203.1563226955400694
    Total Energy =                       -227.8441956026933042

  Dipole Moment: [D]
     X:    -2.1055      Y:     0.7192      Z:    -0.2109     Total:     2.2349

    SAPT Results
  --------------------------------------------------------------------------------------------------------
    Electrostatics                 -1.06493962 [mEh]      -0.66825970 [kcal/mol]      -2.79599860 [kJ/mol]
      Elst10,r                     -1.06493962 [mEh]      -0.66825970 [kcal/mol]      -2.79599860 [kJ/mol]

    Exchange                        1.30151036 [mEh]       0.81671008 [kcal/mol]       3.41711498 [kJ/mol]
      Exch10                        1.30151036 [mEh]       0.81671008 [kcal/mol]       3.41711498 [kJ/mol]
      Exch10(S^2)                   1.30005510 [mEh]       0.81579689 [kcal/mol]       3.41329419 [kJ/mol]

    Induction                      -0.19765712 [mEh]      -0.12403172 [kcal/mol]      -0.51894871 [kJ/mol]
      Ind20,r                      -0.30419823 [mEh]      -0.19088727 [kcal/mol]      -0.79867233 [kJ/mol]
      Exch-Ind20,r                  0.19416106 [mEh]       0.12183791 [kcal/mol]       0.50976980 [kJ/mol]
      delta HF,r (2)               -0.08761996 [mEh]      -0.05498235 [kcal/mol]      -0.23004617 [kJ/mol]

    Dispersion                     -1.50794672 [mEh]      -0.94625085 [kcal/mol]      -3.95911356 [kJ/mol]
      Disp20                       -1.61745630 [mEh]      -1.01496915 [kcal/mol]      -4.24663092 [kJ/mol]
      Exch-Disp20                   0.10950958 [mEh]       0.06871830 [kcal/mol]       0.28751736 [kJ/mol]
      Disp20 (SS)                  -0.80872815 [mEh]      -0.50748457 [kcal/mol]      -2.12331546 [kJ/mol]
      Disp20 (OS)                  -0.80872815 [mEh]      -0.50748457 [kcal/mol]      -2.12331546 [kJ/mol]
      Exch-Disp20 (SS)              0.07077430 [mEh]       0.04441154 [kcal/mol]       0.18581789 [kJ/mol]
      Exch-Disp20 (OS)              0.03873528 [mEh]       0.02430676 [kcal/mol]       0.10169947 [kJ/mol]

  Total HF                          0.03891361 [mEh]       0.02441866 [kcal/mol]       0.10216768 [kJ/mol]
  Total SAPT0                      -1.46903310 [mEh]      -0.92183219 [kcal/mol]      -3.85694588 [kJ/mol]

  Special recipe for scaled SAPT0 (see Manual):
    Electrostatics sSAPT0          -1.06493962 [mEh]      -0.66825970 [kcal/mol]      -2.79599860 [kJ/mol]
    Exchange sSAPT0                 1.30151036 [mEh]       0.81671008 [kcal/mol]       3.41711498 [kJ/mol]
    Induction sSAPT0               -0.19700437 [mEh]      -0.12362211 [kcal/mol]      -0.51723490 [kJ/mol]
    Dispersion sSAPT0              -1.50757855 [mEh]      -0.94601982 [kcal/mol]      -3.95814695 [kJ/mol]
  Total sSAPT0                     -1.46801219 [mEh]      -0.92119156 [kcal/mol]      -3.85426547 [kJ/mol]
  --------------------------------------------------------------------------------------------------------

*** Psi4 exiting successfully. Buy a developer a beer!
