                               Psi4 1.4rc3

  ==> Input File <==

--------------------------------------------------------------------------
# PSI4 file produced by CrystaLattE

# Generated from:               acetic_acid.xyz
# Psithon input for N-mer:      2mer-0+35
# Number of atoms per monomer:  [8, 8]
# Number of replicas:           2
# COM priority:                 1.671319039568e-04
# Minimum COM separations:      9.607
# Separation priority:          3.828304253326e-04
# Minimum monomer separations:  7.288
# Cutoff priority:              2.779768277836e-05
# Nuclear repulsion energy:     299.75992905376137

memory 7 GB

molecule Dimer_0_35 {
  O           -5.53102237       2.93940290       1.97762624
  O           -2.40708886       0.90817734       0.04905909
  H           -0.50304887       1.37579205       4.63880908
  H            0.00000000       4.25104285       3.09072238
  H           -2.38948215       4.01916779       5.40195041
  H           -3.74771411       0.47147930      -1.21557512
  C           -1.41859782       2.98500500       3.84405190
  C           -3.32263781       2.28628814       1.91221413
--
  O            7.04519948       8.80893371      -8.92439275
  O           10.16913299      10.84015928     -10.85295990
  H           12.07317298      10.37254456      -6.26320991
  H           12.57622185       7.49729376      -7.81129661
  H           10.18673970       7.72916883      -5.50006858
  H            8.82850774      11.27685732     -12.11759411
  C           11.15762403       8.76333161      -7.05796709
  C            9.25358404       9.46204848      -8.98980486
units = au
no_com
no_reorient
}

set {
  e_convergence 10
  d_convergence 10
  scf_type df
  mp2_type df
  cc_type df
  freeze_core true
}

energy('sapt0/aug-cc-pvdz')

--------------------------------------------------------------------------

  //              Dimer HF             //
    Molecular point group: c1
  Charge       = 0
  Multiplicity = 1
  Basis Set: AUG-CC-PVDZ
    Blend: AUG-CC-PVDZ
  Basis Set: (AUG-CC-PVDZ AUX)
    Blend: AUG-CC-PVDZ-JKFIT
  @DF-RHF Final Energy:  -455.68822638134139
    Total Energy =                       -455.6882263813413942
  //            Monomer A HF           //
    Molecular point group: c1
  Multiplicity = 1
  Basis Set: AUG-CC-PVDZ
    Blend: AUG-CC-PVDZ
  Basis Set: (AUG-CC-PVDZ AUX)
    Blend: AUG-CC-PVDZ-JKFIT
  @DF-RHF Final Energy:  -227.84408874984402
    Total Energy =                       -227.8440887498440190
  //            Monomer B HF           //
    Molecular point group: c1

    Geometry (in Bohr), charge = 0, multiplicity = 1:

       Center              X                  Y                   Z               Mass
    ------------   -----------------  -----------------  -----------------  -----------------
      Gh(O)          -5.531022370000     2.939402900000     1.977626240000    15.994914619570
      Gh(O)          -2.407088860000     0.908177340000     0.049059090000    15.994914619570
      Gh(H)          -0.503048870000     1.375792050000     4.638809080000     1.007825032230
      Gh(H)           0.000000000000     4.251042850000     3.090722380000     1.007825032230
      Gh(H)          -2.389482150000     4.019167790000     5.401950410000     1.007825032230
      Gh(H)          -3.747714110000     0.471479300000    -1.215575120000     1.007825032230
      Gh(C)          -1.418597820000     2.985005000000     3.844051900000    12.000000000000
      Gh(C)          -3.322637810000     2.286288140000     1.912214130000    12.000000000000
         O            7.045199480000     8.808933710000    -8.924392750000    15.994914619570
         O           10.169132990000    10.840159280000   -10.852959900000    15.994914619570
         H           12.073172980000    10.372544560000    -6.263209910000     1.007825032230
         H           12.576221850000     7.497293760000    -7.811296610000     1.007825032230
         H           10.186739700000     7.729168830000    -5.500068580000     1.007825032230
         H            8.828507740000    11.276857320000   -12.117594110000     1.007825032230
         C           11.157624030000     8.763331610000    -7.057967090000    12.000000000000
         C            9.253584040000     9.462048480000    -8.989804860000    12.000000000000

  Charge       = 0
  Multiplicity = 1
  Basis Set: AUG-CC-PVDZ
    Blend: AUG-CC-PVDZ
  Basis Set: (AUG-CC-PVDZ AUX)
    Blend: AUG-CC-PVDZ-JKFIT

    Orbital Energies [Eh]
    ---------------------

    Doubly Occupied:

       1A    -20.629476     2A    -20.552803     3A    -11.396106
       4A    -11.250979     5A     -1.475851     6A     -1.357486
       7A     -1.032999     8A     -0.837930     9A     -0.703065
      10A     -0.688465    11A     -0.657748    12A     -0.576537
      13A     -0.569697    14A     -0.561403    15A     -0.475343
      16A     -0.452433

  @DF-RHF Final Energy:  -227.84408928588905

   => Energetics <=

    Nuclear Repulsion Energy =            121.7484301466045196
    One-Electron Energy =                -552.7484001831469413
    Two-Electron Energy =                 203.1558807506533810
    Total Energy =                       -227.8440892858890550

  Dipole Moment: [D]
     X:     2.1047      Y:     0.7190      Z:    -0.2116     Total:     2.2342

    SAPT Results
  --------------------------------------------------------------------------------------------------------
    Electrostatics                 -0.04592399 [mEh]      -0.02881774 [kcal/mol]      -0.12057342 [kJ/mol]
      Elst10,r                     -0.04592399 [mEh]      -0.02881774 [kcal/mol]      -0.12057342 [kJ/mol]

    Exchange                        0.00000127 [mEh]       0.00000079 [kcal/mol]       0.00000332 [kJ/mol]
      Exch10                        0.00000127 [mEh]       0.00000079 [kcal/mol]       0.00000332 [kJ/mol]
      Exch10(S^2)                   0.00000127 [mEh]       0.00000079 [kcal/mol]       0.00000332 [kJ/mol]

    Induction                      -0.00242289 [mEh]      -0.00152038 [kcal/mol]      -0.00636128 [kJ/mol]
      Ind20,r                      -0.00232080 [mEh]      -0.00145632 [kcal/mol]      -0.00609325 [kJ/mol]
      Exch-Ind20,r                  0.00000375 [mEh]       0.00000235 [kcal/mol]       0.00000984 [kJ/mol]
      delta HF,r (2)               -0.00010584 [mEh]      -0.00006641 [kcal/mol]      -0.00027787 [kJ/mol]

    Dispersion                     -0.01906114 [mEh]      -0.01196105 [kcal/mol]      -0.05004502 [kJ/mol]
      Disp20                       -0.01906150 [mEh]      -0.01196127 [kcal/mol]      -0.05004595 [kJ/mol]
      Exch-Disp20                   0.00000035 [mEh]       0.00000022 [kcal/mol]       0.00000093 [kJ/mol]
      Disp20 (SS)                  -0.00953075 [mEh]      -0.00598063 [kcal/mol]      -0.02502297 [kJ/mol]
      Disp20 (OS)                  -0.00953075 [mEh]      -0.00598063 [kcal/mol]      -0.02502297 [kJ/mol]
      Exch-Disp20 (SS)              0.00000029 [mEh]       0.00000018 [kcal/mol]       0.00000076 [kJ/mol]
      Exch-Disp20 (OS)              0.00000007 [mEh]       0.00000004 [kcal/mol]       0.00000017 [kJ/mol]

  Total HF                         -0.04834561 [mEh]      -0.03033733 [kcal/mol]      -0.12693138 [kJ/mol]
  Total SAPT0                      -0.06740675 [mEh]      -0.04229837 [kcal/mol]      -0.17697639 [kJ/mol]

  Special recipe for scaled SAPT0 (see Manual):
    Electrostatics sSAPT0          -0.04592399 [mEh]      -0.02881774 [kcal/mol]      -0.12057342 [kJ/mol]
    Exchange sSAPT0                 0.00000127 [mEh]       0.00000079 [kcal/mol]       0.00000332 [kJ/mol]
    Induction sSAPT0               -0.00242289 [mEh]      -0.00152038 [kcal/mol]      -0.00636128 [kJ/mol]
    Dispersion sSAPT0              -0.01906114 [mEh]      -0.01196105 [kcal/mol]      -0.05004502 [kJ/mol]
  Total sSAPT0                     -0.06740675 [mEh]      -0.04229837 [kcal/mol]      -0.17697639 [kJ/mol]
  --------------------------------------------------------------------------------------------------------

*** Psi4 exiting successfully. Buy a developer a beer!
