                               Psi4 1.4rc3

  ==> Input File <==

--------------------------------------------------------------------------
# PSI4 file produced by CrystaLattE

# Generated from:               acetic_acid.xyz
# Psithon input for N-mer:      2mer-0+489
# Number of atoms per monomer:  [8, 8]
# Number of replicas:           2
# COM priority:                 1.256537549032e-05
# Minimum COM separations:      22.762
# Separation priority:          2.218827375091e-05
# Minimum monomer separations:  18.832
# Cutoff priority:              6.234926725159e-07
# Nuclear repulsion energy:     267.3358005252339

memory 7 GB

molecule Dimer_0_489 {
  O           -5.53102237       2.93940290       1.97762624
  O           -2.40708886       0.90817734       0.04905909
  H           -0.50304887       1.37579205       4.63880908
  H            0.00000000       4.25104285       3.09072238
  H           -2.38948215       4.01916779       5.40195041
  H           -3.74771411       0.47147930      -1.21557512
  C           -1.41859782       2.98500500       3.84405190
  C           -3.32263781       2.28628814       1.91221413
--
  O           -5.38513820     -16.38351916     -36.17944022
  O           -8.50907170     -18.41474473     -38.10800738
  H          -10.41311169     -17.94713001     -33.51825739
  H          -10.91616057     -15.07187921     -35.06634408
  H           -8.52667842     -15.30375427     -32.75511606
  H           -7.16844646     -18.85144277     -39.37264158
  C           -9.49756274     -16.33791706     -34.31301457
  C           -7.59352275     -17.03663393     -36.24485234
units = au
no_com
no_reorient
}

set {
  e_convergence 10
  d_convergence 10
  scf_type df
  mp2_type df
  cc_type df
  freeze_core true
}

energy('sapt0/aug-cc-pvdz')

--------------------------------------------------------------------------

  //              Dimer HF             //
    Molecular point group: c1
  Charge       = 0
  Multiplicity = 1
  Basis Set: AUG-CC-PVDZ
    Blend: AUG-CC-PVDZ
  Basis Set: (AUG-CC-PVDZ AUX)
    Blend: AUG-CC-PVDZ-JKFIT
  @DF-RHF Final Energy:  -455.68818076684596
    Total Energy =                       -455.6881807668459601
  //            Monomer A HF           //
    Molecular point group: c1
  Multiplicity = 1
  Basis Set: AUG-CC-PVDZ
    Blend: AUG-CC-PVDZ
  Basis Set: (AUG-CC-PVDZ AUX)
    Blend: AUG-CC-PVDZ-JKFIT
  @DF-RHF Final Energy:  -227.84408589680444
    Total Energy =                       -227.8440858968044438
  //            Monomer B HF           //
    Molecular point group: c1

    Geometry (in Bohr), charge = 0, multiplicity = 1:

       Center              X                  Y                   Z               Mass
    ------------   -----------------  -----------------  -----------------  -----------------
      Gh(O)          -5.531022370000     2.939402900000     1.977626240000    15.994914619570
      Gh(O)          -2.407088860000     0.908177340000     0.049059090000    15.994914619570
      Gh(H)          -0.503048870000     1.375792050000     4.638809080000     1.007825032230
      Gh(H)           0.000000000000     4.251042850000     3.090722380000     1.007825032230
      Gh(H)          -2.389482150000     4.019167790000     5.401950410000     1.007825032230
      Gh(H)          -3.747714110000     0.471479300000    -1.215575120000     1.007825032230
      Gh(C)          -1.418597820000     2.985005000000     3.844051900000    12.000000000000
      Gh(C)          -3.322637810000     2.286288140000     1.912214130000    12.000000000000
         O           -5.385138200000   -16.383519160000   -36.179440220000    15.994914619570
         O           -8.509071700000   -18.414744730000   -38.108007380000    15.994914619570
         H          -10.413111690000   -17.947130010000   -33.518257390000     1.007825032230
         H          -10.916160570000   -15.071879210000   -35.066344080000     1.007825032230
         H           -8.526678420000   -15.303754270000   -32.755116060000     1.007825032230
         H           -7.168446460000   -18.851442770000   -39.372641580000     1.007825032230
         C           -9.497562740000   -16.337917060000   -34.313014570000    12.000000000000
         C           -7.593522750000   -17.036633930000   -36.244852340000    12.000000000000

  Charge       = 0
  Multiplicity = 1
  Basis Set: AUG-CC-PVDZ
    Blend: AUG-CC-PVDZ
  Basis Set: (AUG-CC-PVDZ AUX)
    Blend: AUG-CC-PVDZ-JKFIT

    Orbital Energies [Eh]
    ---------------------

    Doubly Occupied:

       1A    -20.629476     2A    -20.552804     3A    -11.396108
       4A    -11.250979     5A     -1.475853     6A     -1.357486
       7A     -1.032999     8A     -0.837930     9A     -0.703065
      10A     -0.688465    11A     -0.657749    12A     -0.576538
      13A     -0.569697    14A     -0.561403    15A     -0.475343
      16A     -0.452434

  @DF-RHF Final Energy:  -227.84408589666674

   => Energetics <=

    Nuclear Repulsion Energy =            121.7484302991578744
    One-Electron Energy =                -552.7483716045742312
    Two-Electron Energy =                 203.1558554087496304
    Total Energy =                       -227.8440858966667406

  Dipole Moment: [D]
     X:    -2.1048      Y:    -0.7191      Z:    -0.2116     Total:     2.2342

    SAPT Results
  --------------------------------------------------------------------------------------------------------
    Electrostatics                 -0.00895425 [mEh]      -0.00561888 [kcal/mol]      -0.02350939 [kJ/mol]
      Elst10,r                     -0.00895425 [mEh]      -0.00561888 [kcal/mol]      -0.02350939 [kJ/mol]

    Exchange                       -0.00000000 [mEh]      -0.00000000 [kcal/mol]      -0.00000000 [kJ/mol]
      Exch10                       -0.00000000 [mEh]      -0.00000000 [kcal/mol]      -0.00000000 [kJ/mol]
      Exch10(S^2)                  -0.00000000 [mEh]      -0.00000000 [kcal/mol]      -0.00000000 [kJ/mol]

    Induction                      -0.00001912 [mEh]      -0.00001200 [kcal/mol]      -0.00005020 [kJ/mol]
      Ind20,r                      -0.00000561 [mEh]      -0.00000352 [kcal/mol]      -0.00001473 [kJ/mol]
      Exch-Ind20,r                  0.00000000 [mEh]       0.00000000 [kcal/mol]       0.00000000 [kJ/mol]
      delta HF,r (2)               -0.00001351 [mEh]      -0.00000848 [kcal/mol]      -0.00003547 [kJ/mol]

    Dispersion                     -0.00009558 [mEh]      -0.00005998 [kcal/mol]      -0.00025096 [kJ/mol]
      Disp20                       -0.00009558 [mEh]      -0.00005998 [kcal/mol]      -0.00025096 [kJ/mol]
      Exch-Disp20                   0.00000000 [mEh]       0.00000000 [kcal/mol]       0.00000000 [kJ/mol]
      Disp20 (SS)                  -0.00004779 [mEh]      -0.00002999 [kcal/mol]      -0.00012548 [kJ/mol]
      Disp20 (OS)                  -0.00004779 [mEh]      -0.00002999 [kcal/mol]      -0.00012548 [kJ/mol]
      Exch-Disp20 (SS)              0.00000000 [mEh]       0.00000000 [kcal/mol]       0.00000000 [kJ/mol]
      Exch-Disp20 (OS)              0.00000000 [mEh]       0.00000000 [kcal/mol]       0.00000000 [kJ/mol]

  Total HF                         -0.00897337 [mEh]      -0.00563088 [kcal/mol]      -0.02355959 [kJ/mol]
  Total SAPT0                      -0.00906896 [mEh]      -0.00569086 [kcal/mol]      -0.02381055 [kJ/mol]

  Special recipe for scaled SAPT0 (see Manual):
    Electrostatics sSAPT0          -0.00895425 [mEh]      -0.00561888 [kcal/mol]      -0.02350939 [kJ/mol]
    Exchange sSAPT0                -0.00000000 [mEh]      -0.00000000 [kcal/mol]      -0.00000000 [kJ/mol]
    Induction sSAPT0               -0.00001912 [mEh]      -0.00001200 [kcal/mol]      -0.00005020 [kJ/mol]
    Dispersion sSAPT0              -0.00009558 [mEh]      -0.00005998 [kcal/mol]      -0.00025096 [kJ/mol]
  Total sSAPT0                     -0.00906896 [mEh]      -0.00569086 [kcal/mol]      -0.02381055 [kJ/mol]
  --------------------------------------------------------------------------------------------------------

*** Psi4 exiting successfully. Buy a developer a beer!
