                               Psi4 1.4rc3

  ==> Input File <==

--------------------------------------------------------------------------
# PSI4 file produced by CrystaLattE

# Generated from:               acetic_acid.xyz
# Psithon input for N-mer:      2mer-0+34
# Number of atoms per monomer:  [8, 8]
# Number of replicas:           2
# COM priority:                 1.894024308960e-04
# Minimum COM separations:      9.215
# Separation priority:          7.829436062924e-04
# Minimum monomer separations:  5.741
# Cutoff priority:              7.216179194508e-05
# Nuclear repulsion energy:     302.572275007658

memory 7 GB

molecule Dimer_0_34 {
  O           -5.53102237       2.93940290       1.97762624
  O           -2.40708886       0.90817734       0.04905909
  H           -0.50304887       1.37579205       4.63880908
  H            0.00000000       4.25104285       3.09072238
  H           -2.38948215       4.01916779       5.40195041
  H           -3.74771411       0.47147930      -1.21557512
  C           -1.41859782       2.98500500       3.84405190
  C           -3.32263781       2.28628814       1.91221413
--
  O           -5.38513820      -0.92518151     -14.37540224
  O           -8.50907170      -2.95640708     -16.30396940
  H          -10.41311169      -2.48879236     -11.71421941
  H          -10.91616057       0.38645844     -13.26230610
  H           -8.52667842       0.15458338     -10.95107808
  H           -7.16844646      -3.39310511     -17.56860360
  C           -9.49756274      -0.87957941     -12.50897659
  C           -7.59352275      -1.57829627     -14.44081435
units = au
no_com
no_reorient
}

set {
  e_convergence 10
  d_convergence 10
  scf_type df
  mp2_type df
  cc_type df
  freeze_core true
}

energy('sapt0/aug-cc-pvdz')

--------------------------------------------------------------------------

  //              Dimer HF             //
    Molecular point group: c1
  Charge       = 0
  Multiplicity = 1
  Basis Set: AUG-CC-PVDZ
    Blend: AUG-CC-PVDZ
  Basis Set: (AUG-CC-PVDZ AUX)
    Blend: AUG-CC-PVDZ-JKFIT
  @DF-RHF Final Energy:  -455.68834057491176
    Total Energy =                       -455.6883405749117628
  //            Monomer A HF           //
    Molecular point group: c1
  Multiplicity = 1
  Basis Set: AUG-CC-PVDZ
    Blend: AUG-CC-PVDZ
  Basis Set: (AUG-CC-PVDZ AUX)
    Blend: AUG-CC-PVDZ-JKFIT
  @DF-RHF Final Energy:  -227.84408939505408
    Total Energy =                       -227.8440893950540840
  //            Monomer B HF           //
    Molecular point group: c1

    Geometry (in Bohr), charge = 0, multiplicity = 1:

       Center              X                  Y                   Z               Mass
    ------------   -----------------  -----------------  -----------------  -----------------
      Gh(O)          -5.531022370000     2.939402900000     1.977626240000    15.994914619570
      Gh(O)          -2.407088860000     0.908177340000     0.049059090000    15.994914619570
      Gh(H)          -0.503048870000     1.375792050000     4.638809080000     1.007825032230
      Gh(H)           0.000000000000     4.251042850000     3.090722380000     1.007825032230
      Gh(H)          -2.389482150000     4.019167790000     5.401950410000     1.007825032230
      Gh(H)          -3.747714110000     0.471479300000    -1.215575120000     1.007825032230
      Gh(C)          -1.418597820000     2.985005000000     3.844051900000    12.000000000000
      Gh(C)          -3.322637810000     2.286288140000     1.912214130000    12.000000000000
         O           -5.385138200000    -0.925181510000   -14.375402240000    15.994914619570
         O           -8.509071700000    -2.956407080000   -16.303969400000    15.994914619570
         H          -10.413111690000    -2.488792360000   -11.714219410000     1.007825032230
         H          -10.916160570000     0.386458440000   -13.262306100000     1.007825032230
         H           -8.526678420000     0.154583380000   -10.951078080000     1.007825032230
         H           -7.168446460000    -3.393105110000   -17.568603600000     1.007825032230
         C           -9.497562740000    -0.879579410000   -12.508976590000    12.000000000000
         C           -7.593522750000    -1.578296270000   -14.440814350000    12.000000000000

  Charge       = 0
  Multiplicity = 1
  Basis Set: AUG-CC-PVDZ
    Blend: AUG-CC-PVDZ
  Basis Set: (AUG-CC-PVDZ AUX)
    Blend: AUG-CC-PVDZ-JKFIT

    Orbital Energies [Eh]
    ---------------------

    Doubly Occupied:

       1A    -20.629476     2A    -20.552805     3A    -11.396105
       4A    -11.250976     5A     -1.475852     6A     -1.357486
       7A     -1.032999     8A     -0.837930     9A     -0.703065
      10A     -0.688465    11A     -0.657748    12A     -0.576538
      13A     -0.569698    14A     -0.561404    15A     -0.475344
      16A     -0.452433

  @DF-RHF Final Energy:  -227.84409104075797

   => Energetics <=

    Nuclear Repulsion Energy =            121.7484302837411292
    One-Electron Energy =                -552.7483940643314781
    Two-Electron Energy =                 203.1558727398323754
    Total Energy =                       -227.8440910407579736

  Dipole Moment: [D]
     X:    -2.1047      Y:    -0.7190      Z:    -0.2115     Total:     2.2342

    SAPT Results
  --------------------------------------------------------------------------------------------------------
    Electrostatics                 -0.15701986 [mEh]      -0.09853145 [kcal/mol]      -0.41225557 [kJ/mol]
      Elst10,r                     -0.15701986 [mEh]      -0.09853145 [kcal/mol]      -0.41225557 [kJ/mol]

    Exchange                        0.00000033 [mEh]       0.00000021 [kcal/mol]       0.00000087 [kJ/mol]
      Exch10                        0.00000033 [mEh]       0.00000021 [kcal/mol]       0.00000087 [kJ/mol]
      Exch10(S^2)                   0.00000033 [mEh]       0.00000021 [kcal/mol]       0.00000087 [kJ/mol]

    Induction                      -0.00311958 [mEh]      -0.00195756 [kcal/mol]      -0.00819045 [kJ/mol]
      Ind20,r                      -0.00294802 [mEh]      -0.00184991 [kcal/mol]      -0.00774004 [kJ/mol]
      Exch-Ind20,r                  0.00000226 [mEh]       0.00000142 [kcal/mol]       0.00000594 [kJ/mol]
      delta HF,r (2)               -0.00017382 [mEh]      -0.00010907 [kcal/mol]      -0.00045636 [kJ/mol]

    Dispersion                     -0.02853031 [mEh]      -0.01790304 [kcal/mol]      -0.07490632 [kJ/mol]
      Disp20                       -0.02853101 [mEh]      -0.01790348 [kcal/mol]      -0.07490816 [kJ/mol]
      Exch-Disp20                   0.00000070 [mEh]       0.00000044 [kcal/mol]       0.00000184 [kJ/mol]
      Disp20 (SS)                  -0.01426551 [mEh]      -0.00895174 [kcal/mol]      -0.03745408 [kJ/mol]
      Disp20 (OS)                  -0.01426551 [mEh]      -0.00895174 [kcal/mol]      -0.03745408 [kJ/mol]
      Exch-Disp20 (SS)              0.00000058 [mEh]       0.00000037 [kcal/mol]       0.00000153 [kJ/mol]
      Exch-Disp20 (OS)              0.00000012 [mEh]       0.00000007 [kcal/mol]       0.00000031 [kJ/mol]

  Total HF                         -0.16013910 [mEh]      -0.10048880 [kcal/mol]      -0.42044515 [kJ/mol]
  Total SAPT0                      -0.18866941 [mEh]      -0.11839184 [kcal/mol]      -0.49535147 [kJ/mol]

  Special recipe for scaled SAPT0 (see Manual):
    Electrostatics sSAPT0          -0.15701986 [mEh]      -0.09853145 [kcal/mol]      -0.41225557 [kJ/mol]
    Exchange sSAPT0                 0.00000033 [mEh]       0.00000021 [kcal/mol]       0.00000087 [kJ/mol]
    Induction sSAPT0               -0.00311958 [mEh]      -0.00195756 [kcal/mol]      -0.00819045 [kJ/mol]
    Dispersion sSAPT0              -0.02853031 [mEh]      -0.01790304 [kcal/mol]      -0.07490632 [kJ/mol]
  Total sSAPT0                     -0.18866941 [mEh]      -0.11839184 [kcal/mol]      -0.49535147 [kJ/mol]
  --------------------------------------------------------------------------------------------------------

*** Psi4 exiting successfully. Buy a developer a beer!
