                               Psi4 1.4rc3

  ==> Input File <==

--------------------------------------------------------------------------
# PSI4 file produced by CrystaLattE

# Generated from:               acetic_acid.xyz
# Psithon input for N-mer:      2mer-0+296
# Number of atoms per monomer:  [8, 8]
# Number of replicas:           2
# COM priority:                 2.811446928593e-05
# Minimum COM separations:      17.403
# Separation priority:          3.961911450583e-05
# Minimum monomer separations:  15.523
# Cutoff priority:              1.350640245300e-06
# Nuclear repulsion energy:     274.4470778912721

memory 7 GB

molecule Dimer_0_296 {
  O           -5.53102237       2.93940290       1.97762624
  O           -2.40708886       0.90817734       0.04905909
  H           -0.50304887       1.37579205       4.63880908
  H            0.00000000       4.25104285       3.09072238
  H           -2.38948215       4.01916779       5.40195041
  H           -3.74771411       0.47147930      -1.21557512
  C           -1.41859782       2.98500500       3.84405190
  C           -3.32263781       2.28628814       1.91221413
--
  O          -17.96136005     -25.97232601       7.42863574
  O          -21.08529356     -23.94110044       5.50006858
  H          -22.98933354     -24.40871515      10.08981858
  H          -23.49238242     -27.28396595       8.54173188
  H          -21.10290027     -27.05209089      10.85295990
  H          -19.74466831     -23.50440240       4.23543438
  C          -22.07378459     -26.01792810       9.29506139
  C          -20.16974460     -25.31921124       7.36322363
units = au
no_com
no_reorient
}

set {
  e_convergence 10
  d_convergence 10
  scf_type df
  mp2_type df
  cc_type df
  freeze_core true
}

energy('sapt0/aug-cc-pvdz')

--------------------------------------------------------------------------

  //              Dimer HF             //
    Molecular point group: c1
  Charge       = 0
  Multiplicity = 1
  Basis Set: AUG-CC-PVDZ
    Blend: AUG-CC-PVDZ
  Basis Set: (AUG-CC-PVDZ AUX)
    Blend: AUG-CC-PVDZ-JKFIT
  @DF-RHF Final Energy:  -455.68819046281732
    Total Energy =                       -455.6881904628173174
  //            Monomer A HF           //
    Molecular point group: c1
  Multiplicity = 1
  Basis Set: AUG-CC-PVDZ
    Blend: AUG-CC-PVDZ
  Basis Set: (AUG-CC-PVDZ AUX)
    Blend: AUG-CC-PVDZ-JKFIT
  @DF-RHF Final Energy:  -227.84408589534920
    Total Energy =                       -227.8440858953491954
  //            Monomer B HF           //
    Molecular point group: c1

    Geometry (in Bohr), charge = 0, multiplicity = 1:

       Center              X                  Y                   Z               Mass
    ------------   -----------------  -----------------  -----------------  -----------------
      Gh(O)          -5.531022370000     2.939402900000     1.977626240000    15.994914619570
      Gh(O)          -2.407088860000     0.908177340000     0.049059090000    15.994914619570
      Gh(H)          -0.503048870000     1.375792050000     4.638809080000     1.007825032230
      Gh(H)           0.000000000000     4.251042850000     3.090722380000     1.007825032230
      Gh(H)          -2.389482150000     4.019167790000     5.401950410000     1.007825032230
      Gh(H)          -3.747714110000     0.471479300000    -1.215575120000     1.007825032230
      Gh(C)          -1.418597820000     2.985005000000     3.844051900000    12.000000000000
      Gh(C)          -3.322637810000     2.286288140000     1.912214130000    12.000000000000
         O          -17.961360050000   -25.972326010000     7.428635740000    15.994914619570
         O          -21.085293560000   -23.941100440000     5.500068580000    15.994914619570
         H          -22.989333540000   -24.408715150000    10.089818580000     1.007825032230
         H          -23.492382420000   -27.283965950000     8.541731880000     1.007825032230
         H          -21.102900270000   -27.052090890000    10.852959900000     1.007825032230
         H          -19.744668310000   -23.504402400000     4.235434380000     1.007825032230
         C          -22.073784590000   -26.017928100000     9.295061390000    12.000000000000
         C          -20.169744600000   -25.319211240000     7.363223630000    12.000000000000

  Charge       = 0
  Multiplicity = 1
  Basis Set: AUG-CC-PVDZ
    Blend: AUG-CC-PVDZ
  Basis Set: (AUG-CC-PVDZ AUX)
    Blend: AUG-CC-PVDZ-JKFIT

    Orbital Energies [Eh]
    ---------------------

    Doubly Occupied:

       1A    -20.629476     2A    -20.552804     3A    -11.396108
       4A    -11.250979     5A     -1.475853     6A     -1.357486
       7A     -1.032999     8A     -0.837930     9A     -0.703065
      10A     -0.688465    11A     -0.657749    12A     -0.576538
      13A     -0.569697    14A     -0.561403    15A     -0.475343
      16A     -0.452434

  @DF-RHF Final Energy:  -227.84408589676605

   => Energetics <=

    Nuclear Repulsion Energy =            121.7484302332306498
    One-Electron Energy =                -552.7483714780898936
    Two-Electron Energy =                 203.1558553480932119
    Total Energy =                       -227.8440858967660461

  Dipole Moment: [D]
     X:    -2.1048      Y:     0.7191      Z:    -0.2116     Total:     2.2342

    SAPT Results
  --------------------------------------------------------------------------------------------------------
    Electrostatics                 -0.01863644 [mEh]      -0.01169455 [kcal/mol]      -0.04892998 [kJ/mol]
      Elst10,r                     -0.01863644 [mEh]      -0.01169455 [kcal/mol]      -0.04892998 [kJ/mol]

    Exchange                       -0.00000000 [mEh]      -0.00000000 [kcal/mol]      -0.00000000 [kJ/mol]
      Exch10                       -0.00000000 [mEh]      -0.00000000 [kcal/mol]      -0.00000000 [kJ/mol]
      Exch10(S^2)                  -0.00000000 [mEh]      -0.00000000 [kcal/mol]      -0.00000000 [kJ/mol]

    Induction                      -0.00003426 [mEh]      -0.00002150 [kcal/mol]      -0.00008995 [kJ/mol]
      Ind20,r                      -0.00002323 [mEh]      -0.00001458 [kcal/mol]      -0.00006100 [kJ/mol]
      Exch-Ind20,r                  0.00000000 [mEh]       0.00000000 [kcal/mol]       0.00000000 [kJ/mol]
      delta HF,r (2)               -0.00001103 [mEh]      -0.00000692 [kcal/mol]      -0.00002895 [kJ/mol]

    Dispersion                     -0.00037649 [mEh]      -0.00023625 [kcal/mol]      -0.00098848 [kJ/mol]
      Disp20                       -0.00037649 [mEh]      -0.00023625 [kcal/mol]      -0.00098848 [kJ/mol]
      Exch-Disp20                   0.00000000 [mEh]       0.00000000 [kcal/mol]       0.00000000 [kJ/mol]
      Disp20 (SS)                  -0.00018825 [mEh]      -0.00011813 [kcal/mol]      -0.00049424 [kJ/mol]
      Disp20 (OS)                  -0.00018825 [mEh]      -0.00011813 [kcal/mol]      -0.00049424 [kJ/mol]
      Exch-Disp20 (SS)              0.00000000 [mEh]       0.00000000 [kcal/mol]       0.00000000 [kJ/mol]
      Exch-Disp20 (OS)              0.00000000 [mEh]       0.00000000 [kcal/mol]       0.00000000 [kJ/mol]

  Total HF                         -0.01867070 [mEh]      -0.01171604 [kcal/mol]      -0.04901992 [kJ/mol]
  Total SAPT0                      -0.01904719 [mEh]      -0.01195229 [kcal/mol]      -0.05000840 [kJ/mol]

  Special recipe for scaled SAPT0 (see Manual):
    Electrostatics sSAPT0          -0.01863644 [mEh]      -0.01169455 [kcal/mol]      -0.04892998 [kJ/mol]
    Exchange sSAPT0                -0.00000000 [mEh]      -0.00000000 [kcal/mol]      -0.00000000 [kJ/mol]
    Induction sSAPT0               -0.00003426 [mEh]      -0.00002150 [kcal/mol]      -0.00008995 [kJ/mol]
    Dispersion sSAPT0              -0.00037649 [mEh]      -0.00023625 [kcal/mol]      -0.00098848 [kJ/mol]
  Total sSAPT0                     -0.01904719 [mEh]      -0.01195229 [kcal/mol]      -0.05000840 [kJ/mol]
  --------------------------------------------------------------------------------------------------------

*** Psi4 exiting successfully. Buy a developer a beer!
