                               Psi4 1.4rc3

  ==> Input File <==

--------------------------------------------------------------------------
# PSI4 file produced by CrystaLattE

# Generated from:               acetic_acid.xyz
# Psithon input for N-mer:      2mer-0+245
# Number of atoms per monomer:  [8, 8]
# Number of replicas:           2
# COM priority:                 2.196016123964e-05
# Minimum COM separations:      18.897
# Separation priority:          3.641513407614e-05
# Minimum monomer separations:  15.965
# Cutoff priority:              1.207005412971e-06
# Nuclear repulsion energy:     272.3314244187272

memory 7 GB

molecule Dimer_0_245 {
  O           -5.53102237       2.93940290       1.97762624
  O           -2.40708886       0.90817734       0.04905909
  H           -0.50304887       1.37579205       4.63880908
  H            0.00000000       4.25104285       3.09072238
  H           -2.38948215       4.01916779       5.40195041
  H           -3.74771411       0.47147930      -1.21557512
  C           -1.41859782       2.98500500       3.84405190
  C           -3.32263781       2.28628814       1.91221413
--
  O           32.34352736     -10.51398835      -3.47338325
  O           29.21959385      -8.48276279      -5.40195041
  H           27.31555386      -8.95037750      -0.81220041
  H           26.81250499     -11.82562830      -2.36028711
  H           29.20198714     -11.59375324      -0.04905909
  H           30.56021910      -8.04606475      -6.66658461
  C           28.23110281     -10.55959045      -1.60695760
  C           30.13514280      -9.86087359      -3.53879536
units = au
no_com
no_reorient
}

set {
  e_convergence 10
  d_convergence 10
  scf_type df
  mp2_type df
  cc_type df
  freeze_core true
}

energy('sapt0/aug-cc-pvdz')

--------------------------------------------------------------------------

  //              Dimer HF             //
    Molecular point group: c1
  Charge       = 0
  Multiplicity = 1
  Basis Set: AUG-CC-PVDZ
    Blend: AUG-CC-PVDZ
  Basis Set: (AUG-CC-PVDZ AUX)
    Blend: AUG-CC-PVDZ-JKFIT
  @DF-RHF Final Energy:  -455.68815391140606
    Total Energy =                       -455.6881539114060615
  //            Monomer A HF           //
    Molecular point group: c1
  Multiplicity = 1
  Basis Set: AUG-CC-PVDZ
    Blend: AUG-CC-PVDZ
  Basis Set: (AUG-CC-PVDZ AUX)
    Blend: AUG-CC-PVDZ-JKFIT
  @DF-RHF Final Energy:  -227.84408589450493
    Total Energy =                       -227.8440858945049285
  //            Monomer B HF           //
    Molecular point group: c1

    Geometry (in Bohr), charge = 0, multiplicity = 1:

       Center              X                  Y                   Z               Mass
    ------------   -----------------  -----------------  -----------------  -----------------
      Gh(O)          -5.531022370000     2.939402900000     1.977626240000    15.994914619570
      Gh(O)          -2.407088860000     0.908177340000     0.049059090000    15.994914619570
      Gh(H)          -0.503048870000     1.375792050000     4.638809080000     1.007825032230
      Gh(H)           0.000000000000     4.251042850000     3.090722380000     1.007825032230
      Gh(H)          -2.389482150000     4.019167790000     5.401950410000     1.007825032230
      Gh(H)          -3.747714110000     0.471479300000    -1.215575120000     1.007825032230
      Gh(C)          -1.418597820000     2.985005000000     3.844051900000    12.000000000000
      Gh(C)          -3.322637810000     2.286288140000     1.912214130000    12.000000000000
         O           32.343527360000   -10.513988350000    -3.473383250000    15.994914619570
         O           29.219593850000    -8.482762790000    -5.401950410000    15.994914619570
         H           27.315553860000    -8.950377500000    -0.812200410000     1.007825032230
         H           26.812504990000   -11.825628300000    -2.360287110000     1.007825032230
         H           29.201987140000   -11.593753240000    -0.049059090000     1.007825032230
         H           30.560219100000    -8.046064750000    -6.666584610000     1.007825032230
         C           28.231102810000   -10.559590450000    -1.606957600000    12.000000000000
         C           30.135142800000    -9.860873590000    -3.538795360000    12.000000000000

  Charge       = 0
  Multiplicity = 1
  Basis Set: AUG-CC-PVDZ
    Blend: AUG-CC-PVDZ
  Basis Set: (AUG-CC-PVDZ AUX)
    Blend: AUG-CC-PVDZ-JKFIT

    Orbital Energies [Eh]
    ---------------------

    Doubly Occupied:

       1A    -20.629476     2A    -20.552804     3A    -11.396108
       4A    -11.250979     5A     -1.475853     6A     -1.357486
       7A     -1.032999     8A     -0.837930     9A     -0.703065
      10A     -0.688465    11A     -0.657749    12A     -0.576538
      13A     -0.569697    14A     -0.561403    15A     -0.475343
      16A     -0.452434

  @DF-RHF Final Energy:  -227.84408589425766

   => Energetics <=

    Nuclear Repulsion Energy =            121.7484301954919488
    One-Electron Energy =                -552.7483713985810709
    Two-Electron Energy =                 203.1558553088314625
    Total Energy =                       -227.8440858942576597

  Dipole Moment: [D]
     X:    -2.1048      Y:     0.7191      Z:    -0.2116     Total:     2.2342

    SAPT Results
  --------------------------------------------------------------------------------------------------------
    Electrostatics                  0.01793010 [mEh]       0.01125131 [kcal/mol]       0.04707547 [kJ/mol]
      Elst10,r                      0.01793010 [mEh]       0.01125131 [kcal/mol]       0.04707547 [kJ/mol]

    Exchange                        0.00000000 [mEh]       0.00000000 [kcal/mol]       0.00000000 [kJ/mol]
      Exch10                        0.00000000 [mEh]       0.00000000 [kcal/mol]       0.00000000 [kJ/mol]
      Exch10(S^2)                   0.00000000 [mEh]       0.00000000 [kcal/mol]       0.00000000 [kJ/mol]

    Induction                      -0.00005274 [mEh]      -0.00003310 [kcal/mol]      -0.00013847 [kJ/mol]
      Ind20,r                      -0.00002740 [mEh]      -0.00001719 [kcal/mol]      -0.00007194 [kJ/mol]
      Exch-Ind20,r                  0.00000000 [mEh]       0.00000000 [kcal/mol]       0.00000000 [kJ/mol]
      delta HF,r (2)               -0.00002534 [mEh]      -0.00001590 [kcal/mol]      -0.00006653 [kJ/mol]

    Dispersion                     -0.00033468 [mEh]      -0.00021002 [kcal/mol]      -0.00087871 [kJ/mol]
      Disp20                       -0.00033468 [mEh]      -0.00021002 [kcal/mol]      -0.00087871 [kJ/mol]
      Exch-Disp20                   0.00000000 [mEh]       0.00000000 [kcal/mol]       0.00000000 [kJ/mol]
      Disp20 (SS)                  -0.00016734 [mEh]      -0.00010501 [kcal/mol]      -0.00043936 [kJ/mol]
      Disp20 (OS)                  -0.00016734 [mEh]      -0.00010501 [kcal/mol]      -0.00043936 [kJ/mol]
      Exch-Disp20 (SS)              0.00000000 [mEh]       0.00000000 [kcal/mol]       0.00000000 [kJ/mol]
      Exch-Disp20 (OS)              0.00000000 [mEh]       0.00000000 [kcal/mol]       0.00000000 [kJ/mol]

  Total HF                          0.01787736 [mEh]       0.01121821 [kcal/mol]       0.04693699 [kJ/mol]
  Total SAPT0                       0.01754267 [mEh]       0.01100819 [kcal/mol]       0.04605828 [kJ/mol]

  Special recipe for scaled SAPT0 (see Manual):
    Electrostatics sSAPT0           0.01793010 [mEh]       0.01125131 [kcal/mol]       0.04707547 [kJ/mol]
    Exchange sSAPT0                 0.00000000 [mEh]       0.00000000 [kcal/mol]       0.00000000 [kJ/mol]
    Induction sSAPT0               -0.00005274 [mEh]      -0.00003310 [kcal/mol]      -0.00013847 [kJ/mol]
    Dispersion sSAPT0              -0.00033468 [mEh]      -0.00021002 [kcal/mol]      -0.00087871 [kJ/mol]
  Total sSAPT0                      0.01754267 [mEh]       0.01100819 [kcal/mol]       0.04605828 [kJ/mol]
  --------------------------------------------------------------------------------------------------------

*** Psi4 exiting successfully. Buy a developer a beer!
