                               Psi4 1.4rc3

  ==> Input File <==

--------------------------------------------------------------------------
# PSI4 file produced by CrystaLattE

# Generated from:               acetic_acid.xyz
# Psithon input for N-mer:      2mer-0+284
# Number of atoms per monomer:  [8, 8]
# Number of replicas:           2
# COM priority:                 2.915844827574e-05
# Minimum COM separations:      17.193
# Separation priority:          4.908731375387e-05
# Minimum monomer separations:  14.453
# Cutoff priority:              1.797321165508e-06
# Nuclear repulsion energy:     274.9440113406812

memory 7 GB

molecule Dimer_0_284 {
  O           -5.53102237       2.93940290       1.97762624
  O           -2.40708886       0.90817734       0.04905909
  H           -0.50304887       1.37579205       4.63880908
  H            0.00000000       4.25104285       3.09072238
  H           -2.38948215       4.01916779       5.40195041
  H           -3.74771411       0.47147930      -1.21557512
  C           -1.41859782       2.98500500       3.84405190
  C           -3.32263781       2.28628814       1.91221413
--
  O          -17.96136005      -2.78481953     -25.27742123
  O          -21.08529356      -0.75359396     -27.20598839
  H          -22.98933354      -1.22120867     -22.61623840
  H          -23.49238242      -4.09645948     -24.16432509
  H          -21.10290027      -3.86458441     -21.85309707
  H          -19.74466831      -0.31689592     -28.47062259
  C          -22.07378459      -2.83042162     -23.41099558
  C          -20.16974460      -2.13170476     -25.34283335
units = au
no_com
no_reorient
}

set {
  e_convergence 10
  d_convergence 10
  scf_type df
  mp2_type df
  cc_type df
  freeze_core true
}

energy('sapt0/aug-cc-pvdz')

--------------------------------------------------------------------------

  //              Dimer HF             //
    Molecular point group: c1
  Charge       = 0
  Multiplicity = 1
  Basis Set: AUG-CC-PVDZ
    Blend: AUG-CC-PVDZ
  Basis Set: (AUG-CC-PVDZ AUX)
    Blend: AUG-CC-PVDZ-JKFIT
  @DF-RHF Final Energy:  -455.68820185854145
    Total Energy =                       -455.6882018585414471
  //            Monomer A HF           //
    Molecular point group: c1
  Multiplicity = 1
  Basis Set: AUG-CC-PVDZ
    Blend: AUG-CC-PVDZ
  Basis Set: (AUG-CC-PVDZ AUX)
    Blend: AUG-CC-PVDZ-JKFIT
  @DF-RHF Final Energy:  -227.84408589718231
    Total Energy =                       -227.8440858971823104
  //            Monomer B HF           //
    Molecular point group: c1

    Geometry (in Bohr), charge = 0, multiplicity = 1:

       Center              X                  Y                   Z               Mass
    ------------   -----------------  -----------------  -----------------  -----------------
      Gh(O)          -5.531022370000     2.939402900000     1.977626240000    15.994914619570
      Gh(O)          -2.407088860000     0.908177340000     0.049059090000    15.994914619570
      Gh(H)          -0.503048870000     1.375792050000     4.638809080000     1.007825032230
      Gh(H)           0.000000000000     4.251042850000     3.090722380000     1.007825032230
      Gh(H)          -2.389482150000     4.019167790000     5.401950410000     1.007825032230
      Gh(H)          -3.747714110000     0.471479300000    -1.215575120000     1.007825032230
      Gh(C)          -1.418597820000     2.985005000000     3.844051900000    12.000000000000
      Gh(C)          -3.322637810000     2.286288140000     1.912214130000    12.000000000000
         O          -17.961360050000    -2.784819530000   -25.277421230000    15.994914619570
         O          -21.085293560000    -0.753593960000   -27.205988390000    15.994914619570
         H          -22.989333540000    -1.221208670000   -22.616238400000     1.007825032230
         H          -23.492382420000    -4.096459480000   -24.164325090000     1.007825032230
         H          -21.102900270000    -3.864584410000   -21.853097070000     1.007825032230
         H          -19.744668310000    -0.316895920000   -28.470622590000     1.007825032230
         C          -22.073784590000    -2.830421620000   -23.410995580000    12.000000000000
         C          -20.169744600000    -2.131704760000   -25.342833350000    12.000000000000

  Charge       = 0
  Multiplicity = 1
  Basis Set: AUG-CC-PVDZ
    Blend: AUG-CC-PVDZ
  Basis Set: (AUG-CC-PVDZ AUX)
    Blend: AUG-CC-PVDZ-JKFIT

    Orbital Energies [Eh]
    ---------------------

    Doubly Occupied:

       1A    -20.629476     2A    -20.552804     3A    -11.396108
       4A    -11.250979     5A     -1.475853     6A     -1.357486
       7A     -1.032999     8A     -0.837930     9A     -0.703065
      10A     -0.688465    11A     -0.657749    12A     -0.576538
      13A     -0.569697    14A     -0.561403    15A     -0.475343
      16A     -0.452434

  @DF-RHF Final Energy:  -227.84408589529801

   => Energetics <=

    Nuclear Repulsion Energy =            121.7484302524312909
    One-Electron Energy =                -552.7483715050093451
    Two-Electron Energy =                 203.1558553572800747
    Total Energy =                       -227.8440858952980079

  Dipole Moment: [D]
     X:    -2.1048      Y:     0.7191      Z:    -0.2116     Total:     2.2342

    SAPT Results
  --------------------------------------------------------------------------------------------------------
    Electrostatics                 -0.02999970 [mEh]      -0.01882510 [kcal/mol]      -0.07876420 [kJ/mol]
      Elst10,r                     -0.02999970 [mEh]      -0.01882510 [kcal/mol]      -0.07876420 [kJ/mol]

    Exchange                       -0.00000000 [mEh]      -0.00000000 [kcal/mol]      -0.00000000 [kJ/mol]
      Exch10                       -0.00000000 [mEh]      -0.00000000 [kcal/mol]      -0.00000000 [kJ/mol]
      Exch10(S^2)                  -0.00000000 [mEh]      -0.00000000 [kcal/mol]      -0.00000000 [kJ/mol]

    Induction                      -0.00006636 [mEh]      -0.00004164 [kcal/mol]      -0.00017423 [kJ/mol]
      Ind20,r                      -0.00004689 [mEh]      -0.00002942 [kcal/mol]      -0.00012310 [kJ/mol]
      Exch-Ind20,r                  0.00000000 [mEh]       0.00000000 [kcal/mol]       0.00000000 [kJ/mol]
      delta HF,r (2)               -0.00001947 [mEh]      -0.00001222 [kcal/mol]      -0.00005113 [kJ/mol]

    Dispersion                     -0.00048241 [mEh]      -0.00030272 [kcal/mol]      -0.00126657 [kJ/mol]
      Disp20                       -0.00048241 [mEh]      -0.00030272 [kcal/mol]      -0.00126657 [kJ/mol]
      Exch-Disp20                   0.00000000 [mEh]       0.00000000 [kcal/mol]       0.00000000 [kJ/mol]
      Disp20 (SS)                  -0.00024121 [mEh]      -0.00015136 [kcal/mol]      -0.00063329 [kJ/mol]
      Disp20 (OS)                  -0.00024121 [mEh]      -0.00015136 [kcal/mol]      -0.00063329 [kJ/mol]
      Exch-Disp20 (SS)              0.00000000 [mEh]       0.00000000 [kcal/mol]       0.00000000 [kJ/mol]
      Exch-Disp20 (OS)              0.00000000 [mEh]       0.00000000 [kcal/mol]       0.00000000 [kJ/mol]

  Total HF                         -0.03006606 [mEh]      -0.01886674 [kcal/mol]      -0.07893843 [kJ/mol]
  Total SAPT0                      -0.03054847 [mEh]      -0.01916946 [kcal/mol]      -0.08020500 [kJ/mol]

  Special recipe for scaled SAPT0 (see Manual):
    Electrostatics sSAPT0          -0.02999970 [mEh]      -0.01882510 [kcal/mol]      -0.07876420 [kJ/mol]
    Exchange sSAPT0                -0.00000000 [mEh]      -0.00000000 [kcal/mol]      -0.00000000 [kJ/mol]
    Induction sSAPT0               -0.00006636 [mEh]      -0.00004164 [kcal/mol]      -0.00017423 [kJ/mol]
    Dispersion sSAPT0              -0.00048241 [mEh]      -0.00030272 [kcal/mol]      -0.00126657 [kJ/mol]
  Total sSAPT0                     -0.03054847 [mEh]      -0.01916946 [kcal/mol]      -0.08020500 [kJ/mol]
  --------------------------------------------------------------------------------------------------------

*** Psi4 exiting successfully. Buy a developer a beer!
