                               Psi4 1.4rc3

  ==> Input File <==

--------------------------------------------------------------------------
# PSI4 file produced by CrystaLattE

# Generated from:               acetic_acid.xyz
# Psithon input for N-mer:      2mer-0+22
# Number of atoms per monomer:  [8, 8]
# Number of replicas:           2
# COM priority:                 2.707145712378e-04
# Minimum COM separations:      8.180
# Separation priority:          4.895838932459e-04
# Minimum monomer separations:  6.714
# Cutoff priority:              3.858656881833e-05
# Nuclear repulsion energy:     308.8489291611121

memory 7 GB

molecule Dimer_0_22 {
  O           -5.53102237       2.93940290       1.97762624
  O           -2.40708886       0.90817734       0.04905909
  H           -0.50304887       1.37579205       4.63880908
  H            0.00000000       4.25104285       3.09072238
  H           -2.38948215       4.01916779       5.40195041
  H           -3.74771411       0.47147930      -1.21557512
  C           -1.41859782       2.98500500       3.84405190
  C           -3.32263781       2.28628814       1.91221413
--
  O           -5.53102237     -12.51893475       1.97762624
  O           -2.40708886     -14.55016031       0.04905909
  H           -0.50304887     -14.08254560       4.63880908
  H            0.00000000     -11.20729480       3.09072238
  H           -2.38948215     -11.43916986       5.40195041
  H           -3.74771411     -14.98685835      -1.21557512
  C           -1.41859782     -12.47333265       3.84405190
  C           -3.32263781     -13.17204951       1.91221413
units = au
no_com
no_reorient
}

set {
  e_convergence 10
  d_convergence 10
  scf_type df
  mp2_type df
  cc_type df
  freeze_core true
}

energy('sapt0/aug-cc-pvdz')

--------------------------------------------------------------------------

  //              Dimer HF             //
    Molecular point group: c1
  Charge       = 0
  Multiplicity = 1
  Basis Set: AUG-CC-PVDZ
    Blend: AUG-CC-PVDZ
  Basis Set: (AUG-CC-PVDZ AUX)
    Blend: AUG-CC-PVDZ-JKFIT
  @DF-RHF Final Energy:  -455.68807294846408
    Total Energy =                       -455.6880729484640824
  //            Monomer A HF           //
    Molecular point group: c1
  Multiplicity = 1
  Basis Set: AUG-CC-PVDZ
    Blend: AUG-CC-PVDZ
  Basis Set: (AUG-CC-PVDZ AUX)
    Blend: AUG-CC-PVDZ-JKFIT
  @DF-RHF Final Energy:  -227.84409302474114
    Total Energy =                       -227.8440930247411416
  //            Monomer B HF           //
    Molecular point group: c1

    Geometry (in Bohr), charge = 0, multiplicity = 1:

       Center              X                  Y                   Z               Mass
    ------------   -----------------  -----------------  -----------------  -----------------
      Gh(O)          -5.531022370000     2.939402900000     1.977626240000    15.994914619570
      Gh(O)          -2.407088860000     0.908177340000     0.049059090000    15.994914619570
      Gh(H)          -0.503048870000     1.375792050000     4.638809080000     1.007825032230
      Gh(H)           0.000000000000     4.251042850000     3.090722380000     1.007825032230
      Gh(H)          -2.389482150000     4.019167790000     5.401950410000     1.007825032230
      Gh(H)          -3.747714110000     0.471479300000    -1.215575120000     1.007825032230
      Gh(C)          -1.418597820000     2.985005000000     3.844051900000    12.000000000000
      Gh(C)          -3.322637810000     2.286288140000     1.912214130000    12.000000000000
         O           -5.531022370000   -12.518934750000     1.977626240000    15.994914619570
         O           -2.407088860000   -14.550160310000     0.049059090000    15.994914619570
         H           -0.503048870000   -14.082545600000     4.638809080000     1.007825032230
         H            0.000000000000   -11.207294800000     3.090722380000     1.007825032230
         H           -2.389482150000   -11.439169860000     5.401950410000     1.007825032230
         H           -3.747714110000   -14.986858350000    -1.215575120000     1.007825032230
         C           -1.418597820000   -12.473332650000     3.844051900000    12.000000000000
         C           -3.322637810000   -13.172049510000     1.912214130000    12.000000000000

  Charge       = 0
  Multiplicity = 1
  Basis Set: AUG-CC-PVDZ
    Blend: AUG-CC-PVDZ
  Basis Set: (AUG-CC-PVDZ AUX)
    Blend: AUG-CC-PVDZ-JKFIT

    Orbital Energies [Eh]
    ---------------------

    Doubly Occupied:

       1A    -20.629476     2A    -20.552807     3A    -11.396108
       4A    -11.250978     5A     -1.475852     6A     -1.357486
       7A     -1.033000     8A     -0.837931     9A     -0.703065
      10A     -0.688465    11A     -0.657749    12A     -0.576538
      13A     -0.569697    14A     -0.561404    15A     -0.475345
      16A     -0.452434

  @DF-RHF Final Energy:  -227.84409341659244

   => Energetics <=

    Nuclear Repulsion Energy =            121.7484302109716197
    One-Electron Energy =                -552.7483751480026513
    Two-Electron Energy =                 203.1558515204386026
    Total Energy =                       -227.8440934165924432

  Dipole Moment: [D]
     X:     2.1046      Y:    -0.7189      Z:    -0.2113     Total:     2.2340

    SAPT Results
  --------------------------------------------------------------------------------------------------------
    Electrostatics                  0.11584087 [mEh]       0.07269124 [kcal/mol]       0.30414017 [kJ/mol]
      Elst10,r                      0.11584087 [mEh]       0.07269124 [kcal/mol]       0.30414017 [kJ/mol]

    Exchange                       -0.00000771 [mEh]      -0.00000484 [kcal/mol]      -0.00002023 [kJ/mol]
      Exch10                       -0.00000771 [mEh]      -0.00000484 [kcal/mol]      -0.00002023 [kJ/mol]
      Exch10(S^2)                  -0.00000771 [mEh]      -0.00000484 [kcal/mol]      -0.00002023 [kJ/mol]

    Induction                      -0.00234030 [mEh]      -0.00146856 [kcal/mol]      -0.00614444 [kJ/mol]
      Ind20,r                      -0.00229633 [mEh]      -0.00144097 [kcal/mol]      -0.00602900 [kJ/mol]
      Exch-Ind20,r                  0.00000333 [mEh]       0.00000209 [kcal/mol]       0.00000874 [kJ/mol]
      delta HF,r (2)               -0.00004730 [mEh]      -0.00002968 [kcal/mol]      -0.00012418 [kJ/mol]

    Dispersion                     -0.04096579 [mEh]      -0.02570642 [kcal/mol]      -0.10755566 [kJ/mol]
      Disp20                       -0.04096761 [mEh]      -0.02570756 [kcal/mol]      -0.10756045 [kJ/mol]
      Exch-Disp20                   0.00000182 [mEh]       0.00000114 [kcal/mol]       0.00000478 [kJ/mol]
      Disp20 (SS)                  -0.02048381 [mEh]      -0.01285378 [kcal/mol]      -0.05378022 [kJ/mol]
      Disp20 (OS)                  -0.02048381 [mEh]      -0.01285378 [kcal/mol]      -0.05378022 [kJ/mol]
      Exch-Disp20 (SS)              0.00000155 [mEh]       0.00000097 [kcal/mol]       0.00000407 [kJ/mol]
      Exch-Disp20 (OS)              0.00000027 [mEh]       0.00000017 [kcal/mol]       0.00000072 [kJ/mol]

  Total HF                          0.11349287 [mEh]       0.07121785 [kcal/mol]       0.29797549 [kJ/mol]
  Total SAPT0                       0.07252708 [mEh]       0.04551143 [kcal/mol]       0.19041982 [kJ/mol]

  Special recipe for scaled SAPT0 (see Manual):
    Electrostatics sSAPT0           0.11584087 [mEh]       0.07269124 [kcal/mol]       0.30414017 [kJ/mol]
    Exchange sSAPT0                -0.00000771 [mEh]      -0.00000484 [kcal/mol]      -0.00002023 [kJ/mol]
    Induction sSAPT0               -0.00234030 [mEh]      -0.00146856 [kcal/mol]      -0.00614444 [kJ/mol]
    Dispersion sSAPT0              -0.04096579 [mEh]      -0.02570642 [kcal/mol]      -0.10755566 [kJ/mol]
  Total sSAPT0                      0.07252708 [mEh]       0.04551143 [kcal/mol]       0.19041982 [kJ/mol]
  --------------------------------------------------------------------------------------------------------

*** Psi4 exiting successfully. Buy a developer a beer!
