                               Psi4 1.4rc3

  ==> Input File <==

--------------------------------------------------------------------------
# PSI4 file produced by CrystaLattE

# Generated from:               acetic_acid.xyz
# Psithon input for N-mer:      2mer-0+100
# Number of atoms per monomer:  [8, 8]
# Number of replicas:           2
# COM priority:                 5.875672826207e-05
# Minimum COM separations:      13.612
# Separation priority:          1.425380398196e-04
# Minimum monomer separations:  10.130
# Cutoff priority:              7.445737300901e-06
# Nuclear repulsion energy:     283.3892795472788

memory 7 GB

molecule Dimer_0_100 {
  O           -5.53102237       2.93940290       1.97762624
  O           -2.40708886       0.90817734       0.04905909
  H           -0.50304887       1.37579205       4.63880908
  H            0.00000000       4.25104285       3.09072238
  H           -2.38948215       4.01916779       5.40195041
  H           -3.74771411       0.47147930      -1.21557512
  C           -1.41859782       2.98500500       3.84405190
  C           -3.32263781       2.28628814       1.91221413
--
  O           -5.38513820     -16.38351916     -14.37540224
  O           -8.50907170     -18.41474473     -16.30396940
  H          -10.41311169     -17.94713001     -11.71421941
  H          -10.91616057     -15.07187921     -13.26230610
  H           -8.52667842     -15.30375427     -10.95107808
  H           -7.16844646     -18.85144277     -17.56860360
  C           -9.49756274     -16.33791706     -12.50897659
  C           -7.59352275     -17.03663393     -14.44081435
units = au
no_com
no_reorient
}

set {
  e_convergence 10
  d_convergence 10
  scf_type df
  mp2_type df
  cc_type df
  freeze_core true
}

energy('sapt0/aug-cc-pvdz')

--------------------------------------------------------------------------

  //              Dimer HF             //
    Molecular point group: c1
  Charge       = 0
  Multiplicity = 1
  Basis Set: AUG-CC-PVDZ
    Blend: AUG-CC-PVDZ
  Basis Set: (AUG-CC-PVDZ AUX)
    Blend: AUG-CC-PVDZ-JKFIT
  @DF-RHF Final Energy:  -455.68822657323562
    Total Energy =                       -455.6882265732356245
  //            Monomer A HF           //
    Molecular point group: c1
  Multiplicity = 1
  Basis Set: AUG-CC-PVDZ
    Blend: AUG-CC-PVDZ
  Basis Set: (AUG-CC-PVDZ AUX)
    Blend: AUG-CC-PVDZ-JKFIT
  @DF-RHF Final Energy:  -227.84408594118250
    Total Energy =                       -227.8440859411824988
  //            Monomer B HF           //
    Molecular point group: c1

    Geometry (in Bohr), charge = 0, multiplicity = 1:

       Center              X                  Y                   Z               Mass
    ------------   -----------------  -----------------  -----------------  -----------------
      Gh(O)          -5.531022370000     2.939402900000     1.977626240000    15.994914619570
      Gh(O)          -2.407088860000     0.908177340000     0.049059090000    15.994914619570
      Gh(H)          -0.503048870000     1.375792050000     4.638809080000     1.007825032230
      Gh(H)           0.000000000000     4.251042850000     3.090722380000     1.007825032230
      Gh(H)          -2.389482150000     4.019167790000     5.401950410000     1.007825032230
      Gh(H)          -3.747714110000     0.471479300000    -1.215575120000     1.007825032230
      Gh(C)          -1.418597820000     2.985005000000     3.844051900000    12.000000000000
      Gh(C)          -3.322637810000     2.286288140000     1.912214130000    12.000000000000
         O           -5.385138200000   -16.383519160000   -14.375402240000    15.994914619570
         O           -8.509071700000   -18.414744730000   -16.303969400000    15.994914619570
         H          -10.413111690000   -17.947130010000   -11.714219410000     1.007825032230
         H          -10.916160570000   -15.071879210000   -13.262306100000     1.007825032230
         H           -8.526678420000   -15.303754270000   -10.951078080000     1.007825032230
         H           -7.168446460000   -18.851442770000   -17.568603600000     1.007825032230
         C           -9.497562740000   -16.337917060000   -12.508976590000    12.000000000000
         C           -7.593522750000   -17.036633930000   -14.440814350000    12.000000000000

  Charge       = 0
  Multiplicity = 1
  Basis Set: AUG-CC-PVDZ
    Blend: AUG-CC-PVDZ
  Basis Set: (AUG-CC-PVDZ AUX)
    Blend: AUG-CC-PVDZ-JKFIT

    Orbital Energies [Eh]
    ---------------------

    Doubly Occupied:

       1A    -20.629476     2A    -20.552804     3A    -11.396108
       4A    -11.250979     5A     -1.475853     6A     -1.357486
       7A     -1.032999     8A     -0.837930     9A     -0.703065
      10A     -0.688465    11A     -0.657749    12A     -0.576538
      13A     -0.569697    14A     -0.561403    15A     -0.475343
      16A     -0.452434

  @DF-RHF Final Energy:  -227.84408597239556

   => Energetics <=

    Nuclear Repulsion Energy =            121.7484302785148742
    One-Electron Energy =                -552.7483718016841294
    Two-Electron Energy =                 203.1558555507736799
    Total Energy =                       -227.8440859723955612

  Dipole Moment: [D]
     X:    -2.1048      Y:    -0.7191      Z:    -0.2116     Total:     2.2342

    SAPT Results
  --------------------------------------------------------------------------------------------------------
    Electrostatics                 -0.05444517 [mEh]      -0.03416486 [kcal/mol]      -0.14294578 [kJ/mol]
      Elst10,r                     -0.05444517 [mEh]      -0.03416486 [kcal/mol]      -0.14294578 [kJ/mol]

    Exchange                       -0.00000001 [mEh]      -0.00000001 [kcal/mol]      -0.00000002 [kJ/mol]
      Exch10                       -0.00000001 [mEh]      -0.00000001 [kcal/mol]      -0.00000002 [kJ/mol]
      Exch10(S^2)                  -0.00000001 [mEh]      -0.00000001 [kcal/mol]      -0.00000002 [kJ/mol]

    Induction                      -0.00021448 [mEh]      -0.00013459 [kcal/mol]      -0.00056310 [kJ/mol]
      Ind20,r                      -0.00018768 [mEh]      -0.00011777 [kcal/mol]      -0.00049274 [kJ/mol]
      Exch-Ind20,r                  0.00000004 [mEh]       0.00000003 [kcal/mol]       0.00000011 [kJ/mol]
      delta HF,r (2)               -0.00002684 [mEh]      -0.00001684 [kcal/mol]      -0.00007047 [kJ/mol]

    Dispersion                     -0.00224763 [mEh]      -0.00141041 [kcal/mol]      -0.00590114 [kJ/mol]
      Disp20                       -0.00224763 [mEh]      -0.00141041 [kcal/mol]      -0.00590116 [kJ/mol]
      Exch-Disp20                   0.00000001 [mEh]       0.00000000 [kcal/mol]       0.00000002 [kJ/mol]
      Disp20 (SS)                  -0.00112382 [mEh]      -0.00070521 [kcal/mol]      -0.00295058 [kJ/mol]
      Disp20 (OS)                  -0.00112382 [mEh]      -0.00070521 [kcal/mol]      -0.00295058 [kJ/mol]
      Exch-Disp20 (SS)              0.00000001 [mEh]       0.00000000 [kcal/mol]       0.00000002 [kJ/mol]
      Exch-Disp20 (OS)              0.00000000 [mEh]       0.00000000 [kcal/mol]       0.00000000 [kJ/mol]

  Total HF                         -0.05465966 [mEh]      -0.03429945 [kcal/mol]      -0.14350891 [kJ/mol]
  Total SAPT0                      -0.05690728 [mEh]      -0.03570986 [kcal/mol]      -0.14941005 [kJ/mol]

  Special recipe for scaled SAPT0 (see Manual):
    Electrostatics sSAPT0          -0.05444517 [mEh]      -0.03416486 [kcal/mol]      -0.14294578 [kJ/mol]
    Exchange sSAPT0                -0.00000001 [mEh]      -0.00000001 [kcal/mol]      -0.00000002 [kJ/mol]
    Induction sSAPT0               -0.00021448 [mEh]      -0.00013459 [kcal/mol]      -0.00056310 [kJ/mol]
    Dispersion sSAPT0              -0.00224763 [mEh]      -0.00141041 [kcal/mol]      -0.00590114 [kJ/mol]
  Total sSAPT0                     -0.05690728 [mEh]      -0.03570986 [kcal/mol]      -0.14941005 [kJ/mol]
  --------------------------------------------------------------------------------------------------------

*** Psi4 exiting successfully. Buy a developer a beer!
