                               Psi4 1.4rc3

  ==> Input File <==

--------------------------------------------------------------------------
# PSI4 file produced by CrystaLattE

# Generated from:               acetic_acid.xyz
# Psithon input for N-mer:      2mer-0+7
# Number of atoms per monomer:  [8, 8]
# Number of replicas:           2
# COM priority:                 4.189859429064e-04
# Minimum COM separations:      7.072
# Separation priority:          4.322371097130e-03
# Minimum monomer separations:  3.249
# Cutoff priority:              7.040919851423e-04
# Nuclear repulsion energy:     321.7173437801828

memory 7 GB

molecule Dimer_0_7 {
  O           -5.53102237       2.93940290       1.97762624
  O           -2.40708886       0.90817734       0.04905909
  H           -0.50304887       1.37579205       4.63880908
  H            0.00000000       4.25104285       3.09072238
  H           -2.38948215       4.01916779       5.40195041
  H           -3.74771411       0.47147930      -1.21557512
  C           -1.41859782       2.98500500       3.84405190
  C           -3.32263781       2.28628814       1.91221413
--
  O           -5.53102237      -4.78976592      -8.92439275
  O           -2.40708886      -6.82099149     -10.85295990
  H           -0.50304887      -6.35337677      -6.26320991
  H            0.00000000      -3.47812597      -7.81129661
  H           -2.38948215      -3.71000104      -5.50006858
  H           -3.74771411      -7.25768953     -12.11759411
  C           -1.41859782      -4.74416383      -7.05796709
  C           -3.32263781      -5.44288069      -8.98980486
units = au
no_com
no_reorient
}

set {
  e_convergence 10
  d_convergence 10
  scf_type df
  mp2_type df
  cc_type df
  freeze_core true
}

energy('sapt0/aug-cc-pvdz')

--------------------------------------------------------------------------

  //              Dimer HF             //
    Molecular point group: c1
  Charge       = 0
  Multiplicity = 1
  Basis Set: AUG-CC-PVDZ
    Blend: AUG-CC-PVDZ
  Basis Set: (AUG-CC-PVDZ AUX)
    Blend: AUG-CC-PVDZ-JKFIT
  @DF-RHF Final Energy:  -455.68813620843304
    Total Energy =                       -455.6881362084330362
  //            Monomer A HF           //
    Molecular point group: c1
  Multiplicity = 1
  Basis Set: AUG-CC-PVDZ
    Blend: AUG-CC-PVDZ
  Basis Set: (AUG-CC-PVDZ AUX)
    Blend: AUG-CC-PVDZ-JKFIT
  @DF-RHF Final Energy:  -227.84414238676376
    Total Energy =                       -227.8441423867637639
  //            Monomer B HF           //
    Molecular point group: c1

    Geometry (in Bohr), charge = 0, multiplicity = 1:

       Center              X                  Y                   Z               Mass
    ------------   -----------------  -----------------  -----------------  -----------------
      Gh(O)          -5.531022370000     2.939402900000     1.977626240000    15.994914619570
      Gh(O)          -2.407088860000     0.908177340000     0.049059090000    15.994914619570
      Gh(H)          -0.503048870000     1.375792050000     4.638809080000     1.007825032230
      Gh(H)           0.000000000000     4.251042850000     3.090722380000     1.007825032230
      Gh(H)          -2.389482150000     4.019167790000     5.401950410000     1.007825032230
      Gh(H)          -3.747714110000     0.471479300000    -1.215575120000     1.007825032230
      Gh(C)          -1.418597820000     2.985005000000     3.844051900000    12.000000000000
      Gh(C)          -3.322637810000     2.286288140000     1.912214130000    12.000000000000
         O           -5.531022370000    -4.789765920000    -8.924392750000    15.994914619570
         O           -2.407088860000    -6.820991490000   -10.852959900000    15.994914619570
         H           -0.503048870000    -6.353376770000    -6.263209910000     1.007825032230
         H            0.000000000000    -3.478125970000    -7.811296610000     1.007825032230
         H           -2.389482150000    -3.710001040000    -5.500068580000     1.007825032230
         H           -3.747714110000    -7.257689530000   -12.117594110000     1.007825032230
         C           -1.418597820000    -4.744163830000    -7.057967090000    12.000000000000
         C           -3.322637810000    -5.442880690000    -8.989804860000    12.000000000000

  Charge       = 0
  Multiplicity = 1
  Basis Set: AUG-CC-PVDZ
    Blend: AUG-CC-PVDZ
  Basis Set: (AUG-CC-PVDZ AUX)
    Blend: AUG-CC-PVDZ-JKFIT

    Orbital Energies [Eh]
    ---------------------

    Doubly Occupied:

       1A    -20.629478     2A    -20.552807     3A    -11.396095
       4A    -11.250948     5A     -1.475846     6A     -1.357481
       7A     -1.032996     8A     -0.837934     9A     -0.703060
      10A     -0.688463    11A     -0.657741    12A     -0.576534
      13A     -0.569693    14A     -0.561399    15A     -0.475339
      16A     -0.452433

  @DF-RHF Final Energy:  -227.84414863781390

   => Energetics <=

    Nuclear Repulsion Energy =            121.7484301666480633
    One-Electron Energy =                -552.7486604953151073
    Two-Electron Energy =                 203.1560816908531422
    Total Energy =                       -227.8441486378139018

  Dipole Moment: [D]
     X:     2.1044      Y:    -0.7184      Z:    -0.2110     Total:     2.2336

    SAPT Results
  --------------------------------------------------------------------------------------------------------
    Electrostatics                  0.17366636 [mEh]       0.10897729 [kcal/mol]       0.45596097 [kJ/mol]
      Elst10,r                      0.17366636 [mEh]       0.10897729 [kcal/mol]       0.45596097 [kJ/mol]

    Exchange                        0.02213108 [mEh]       0.01388746 [kcal/mol]       0.05810514 [kJ/mol]
      Exch10                        0.02213108 [mEh]       0.01388746 [kcal/mol]       0.05810514 [kJ/mol]
      Exch10(S^2)                   0.02213043 [mEh]       0.01388705 [kcal/mol]       0.05810344 [kJ/mol]

    Induction                      -0.04098130 [mEh]      -0.02571615 [kcal/mol]      -0.10759638 [kJ/mol]
      Ind20,r                      -0.04300686 [mEh]      -0.02698721 [kcal/mol]      -0.11291451 [kJ/mol]
      Exch-Ind20,r                  0.00371782 [mEh]       0.00233296 [kcal/mol]       0.00976113 [kJ/mol]
      delta HF,r (2)               -0.00169225 [mEh]      -0.00106190 [kcal/mol]      -0.00444300 [kJ/mol]

    Dispersion                     -0.28454254 [mEh]      -0.17855314 [kcal/mol]      -0.74706634 [kJ/mol]
      Disp20                       -0.28690777 [mEh]      -0.18003734 [kcal/mol]      -0.75327624 [kJ/mol]
      Exch-Disp20                   0.00236523 [mEh]       0.00148420 [kcal/mol]       0.00620990 [kJ/mol]
      Disp20 (SS)                  -0.14345388 [mEh]      -0.09001867 [kcal/mol]      -0.37663812 [kJ/mol]
      Disp20 (OS)                  -0.14345388 [mEh]      -0.09001867 [kcal/mol]      -0.37663812 [kJ/mol]
      Exch-Disp20 (SS)              0.00168236 [mEh]       0.00105569 [kcal/mol]       0.00441702 [kJ/mol]
      Exch-Disp20 (OS)              0.00068287 [mEh]       0.00042851 [kcal/mol]       0.00179288 [kJ/mol]

  Total HF                          0.15481614 [mEh]       0.09714860 [kcal/mol]       0.40646973 [kJ/mol]
  Total SAPT0                      -0.12972640 [mEh]      -0.08140454 [kcal/mol]      -0.34059661 [kJ/mol]

  Special recipe for scaled SAPT0 (see Manual):
    Electrostatics sSAPT0           0.17366636 [mEh]       0.10897729 [kcal/mol]       0.45596097 [kJ/mol]
    Exchange sSAPT0                 0.02213108 [mEh]       0.01388746 [kcal/mol]       0.05810514 [kJ/mol]
    Induction sSAPT0               -0.04098097 [mEh]      -0.02571595 [kcal/mol]      -0.10759552 [kJ/mol]
    Dispersion sSAPT0              -0.28454233 [mEh]      -0.17855301 [kcal/mol]      -0.74706579 [kJ/mol]
  Total sSAPT0                     -0.12972586 [mEh]      -0.08140421 [kcal/mol]      -0.34059520 [kJ/mol]
  --------------------------------------------------------------------------------------------------------

*** Psi4 exiting successfully. Buy a developer a beer!
