                               Psi4 1.4rc3

  ==> Input File <==

--------------------------------------------------------------------------
# PSI4 file produced by CrystaLattE

# Generated from:               acetic_acid.xyz
# Psithon input for N-mer:      2mer-0+71
# Number of atoms per monomer:  [8, 8]
# Number of replicas:           2
# COM priority:                 8.172203617731e-05
# Minimum COM separations:      12.194
# Separation priority:          1.266889958403e-04
# Minimum monomer separations:  10.536
# Cutoff priority:              6.362852539498e-06
# Nuclear repulsion energy:     287.7499205986756

memory 7 GB

molecule Dimer_0_71 {
  O           -5.53102237       2.93940290       1.97762624
  O           -2.40708886       0.90817734       0.04905909
  H           -0.50304887       1.37579205       4.63880908
  H            0.00000000       4.25104285       3.09072238
  H           -2.38948215       4.01916779       5.40195041
  H           -3.74771411       0.47147930      -1.21557512
  C           -1.41859782       2.98500500       3.84405190
  C           -3.32263781       2.28628814       1.91221413
--
  O            7.04519948     -14.37857277      -8.92439275
  O           10.16913299     -12.34734720     -10.85295990
  H           12.07317298     -12.81496191      -6.26320991
  H           12.57622185     -15.69021272      -7.81129661
  H           10.18673970     -15.45833765      -5.50006858
  H            8.82850774     -11.91064916     -12.11759411
  C           11.15762403     -14.42417486      -7.05796709
  C            9.25358404     -13.72545800      -8.98980486
units = au
no_com
no_reorient
}

set {
  e_convergence 10
  d_convergence 10
  scf_type df
  mp2_type df
  cc_type df
  freeze_core true
}

energy('sapt0/aug-cc-pvdz')

--------------------------------------------------------------------------

  //              Dimer HF             //
    Molecular point group: c1
  Charge       = 0
  Multiplicity = 1
  Basis Set: AUG-CC-PVDZ
    Blend: AUG-CC-PVDZ
  Basis Set: (AUG-CC-PVDZ AUX)
    Blend: AUG-CC-PVDZ-JKFIT
  @DF-RHF Final Energy:  -455.68818649024035
    Total Energy =                       -455.6881864902403549
  //            Monomer A HF           //
    Molecular point group: c1
  Multiplicity = 1
  Basis Set: AUG-CC-PVDZ
    Blend: AUG-CC-PVDZ
  Basis Set: (AUG-CC-PVDZ AUX)
    Blend: AUG-CC-PVDZ-JKFIT
  @DF-RHF Final Energy:  -227.84408590791503
    Total Energy =                       -227.8440859079150300
  //            Monomer B HF           //
    Molecular point group: c1

    Geometry (in Bohr), charge = 0, multiplicity = 1:

       Center              X                  Y                   Z               Mass
    ------------   -----------------  -----------------  -----------------  -----------------
      Gh(O)          -5.531022370000     2.939402900000     1.977626240000    15.994914619570
      Gh(O)          -2.407088860000     0.908177340000     0.049059090000    15.994914619570
      Gh(H)          -0.503048870000     1.375792050000     4.638809080000     1.007825032230
      Gh(H)           0.000000000000     4.251042850000     3.090722380000     1.007825032230
      Gh(H)          -2.389482150000     4.019167790000     5.401950410000     1.007825032230
      Gh(H)          -3.747714110000     0.471479300000    -1.215575120000     1.007825032230
      Gh(C)          -1.418597820000     2.985005000000     3.844051900000    12.000000000000
      Gh(C)          -3.322637810000     2.286288140000     1.912214130000    12.000000000000
         O            7.045199480000   -14.378572770000    -8.924392750000    15.994914619570
         O           10.169132990000   -12.347347200000   -10.852959900000    15.994914619570
         H           12.073172980000   -12.814961910000    -6.263209910000     1.007825032230
         H           12.576221850000   -15.690212720000    -7.811296610000     1.007825032230
         H           10.186739700000   -15.458337650000    -5.500068580000     1.007825032230
         H            8.828507740000   -11.910649160000   -12.117594110000     1.007825032230
         C           11.157624030000   -14.424174860000    -7.057967090000    12.000000000000
         C            9.253584040000   -13.725458000000    -8.989804860000    12.000000000000

  Charge       = 0
  Multiplicity = 1
  Basis Set: AUG-CC-PVDZ
    Blend: AUG-CC-PVDZ
  Basis Set: (AUG-CC-PVDZ AUX)
    Blend: AUG-CC-PVDZ-JKFIT

    Orbital Energies [Eh]
    ---------------------

    Doubly Occupied:

       1A    -20.629476     2A    -20.552804     3A    -11.396108
       4A    -11.250979     5A     -1.475853     6A     -1.357486
       7A     -1.032999     8A     -0.837930     9A     -0.703065
      10A     -0.688465    11A     -0.657749    12A     -0.576538
      13A     -0.569697    14A     -0.561403    15A     -0.475343
      16A     -0.452433

  @DF-RHF Final Energy:  -227.84408590688071

   => Energetics <=

    Nuclear Repulsion Energy =            121.7484301522181909
    One-Electron Energy =                -552.7483715422762316
    Two-Electron Energy =                 203.1558554831773336
    Total Energy =                       -227.8440859068807072

  Dipole Moment: [D]
     X:     2.1048      Y:     0.7191      Z:    -0.2116     Total:     2.2342

    SAPT Results
  --------------------------------------------------------------------------------------------------------
    Electrostatics                 -0.01445380 [mEh]      -0.00906989 [kcal/mol]      -0.03794844 [kJ/mol]
      Elst10,r                     -0.01445380 [mEh]      -0.00906989 [kcal/mol]      -0.03794844 [kJ/mol]

    Exchange                        0.00000000 [mEh]       0.00000000 [kcal/mol]       0.00000000 [kJ/mol]
      Exch10                        0.00000000 [mEh]       0.00000000 [kcal/mol]       0.00000000 [kJ/mol]
      Exch10(S^2)                   0.00000000 [mEh]       0.00000000 [kcal/mol]       0.00000000 [kJ/mol]

    Induction                      -0.00022165 [mEh]      -0.00013909 [kcal/mol]      -0.00058194 [kJ/mol]
      Ind20,r                      -0.00019766 [mEh]      -0.00012404 [kcal/mol]      -0.00051896 [kJ/mol]
      Exch-Ind20,r                  0.00000002 [mEh]       0.00000001 [kcal/mol]       0.00000004 [kJ/mol]
      delta HF,r (2)               -0.00002400 [mEh]      -0.00001506 [kcal/mol]      -0.00006302 [kJ/mol]

    Dispersion                     -0.00362076 [mEh]      -0.00227206 [kcal/mol]      -0.00950631 [kJ/mol]
      Disp20                       -0.00362077 [mEh]      -0.00227206 [kcal/mol]      -0.00950632 [kJ/mol]
      Exch-Disp20                   0.00000000 [mEh]       0.00000000 [kcal/mol]       0.00000001 [kJ/mol]
      Disp20 (SS)                  -0.00181038 [mEh]      -0.00113603 [kcal/mol]      -0.00475316 [kJ/mol]
      Disp20 (OS)                  -0.00181038 [mEh]      -0.00113603 [kcal/mol]      -0.00475316 [kJ/mol]
      Exch-Disp20 (SS)              0.00000000 [mEh]       0.00000000 [kcal/mol]       0.00000000 [kJ/mol]
      Exch-Disp20 (OS)              0.00000000 [mEh]       0.00000000 [kcal/mol]       0.00000000 [kJ/mol]

  Total HF                         -0.01467544 [mEh]      -0.00920898 [kcal/mol]      -0.03853037 [kJ/mol]
  Total SAPT0                      -0.01829621 [mEh]      -0.01148104 [kcal/mol]      -0.04803669 [kJ/mol]

  Special recipe for scaled SAPT0 (see Manual):
    Electrostatics sSAPT0          -0.01445380 [mEh]      -0.00906989 [kcal/mol]      -0.03794844 [kJ/mol]
    Exchange sSAPT0                 0.00000000 [mEh]       0.00000000 [kcal/mol]       0.00000000 [kJ/mol]
    Induction sSAPT0               -0.00022165 [mEh]      -0.00013909 [kcal/mol]      -0.00058194 [kJ/mol]
    Dispersion sSAPT0              -0.00362076 [mEh]      -0.00227206 [kcal/mol]      -0.00950631 [kJ/mol]
  Total sSAPT0                     -0.01829621 [mEh]      -0.01148104 [kcal/mol]      -0.04803669 [kJ/mol]
  --------------------------------------------------------------------------------------------------------

*** Psi4 exiting successfully. Buy a developer a beer!
