                               Psi4 1.4rc3

  ==> Input File <==

--------------------------------------------------------------------------
# PSI4 file produced by CrystaLattE

# Generated from:               acetic_acid.xyz
# Psithon input for N-mer:      2mer-0+115
# Number of atoms per monomer:  [8, 8]
# Number of replicas:           2
# COM priority:                 4.327891580351e-05
# Minimum COM separations:      15.072
# Separation priority:          6.834106740400e-05
# Minimum monomer separations:  12.943
# Cutoff priority:              2.794102562062e-06
# Nuclear repulsion energy:     279.4949936026299

memory 7 GB

molecule Dimer_0_115 {
  O           -5.53102237       2.93940290       1.97762624
  O           -2.40708886       0.90817734       0.04905909
  H           -0.50304887       1.37579205       4.63880908
  H            0.00000000       4.25104285       3.09072238
  H           -2.38948215       4.01916779       5.40195041
  H           -3.74771411       0.47147930      -1.21557512
  C           -1.41859782       2.98500500       3.84405190
  C           -3.32263781       2.28628814       1.91221413
--
  O           19.62142133      -4.78976592      -8.92439275
  O           22.74535484      -6.82099149     -10.85295990
  H           24.64939483      -6.35337677      -6.26320991
  H           25.15244370      -3.47812597      -7.81129661
  H           22.76296155      -3.71000104      -5.50006858
  H           21.40472959      -7.25768953     -12.11759411
  C           23.73384588      -4.74416383      -7.05796709
  C           21.82980589      -5.44288069      -8.98980486
units = au
no_com
no_reorient
}

set {
  e_convergence 10
  d_convergence 10
  scf_type df
  mp2_type df
  cc_type df
  freeze_core true
}

energy('sapt0/aug-cc-pvdz')

--------------------------------------------------------------------------

  //              Dimer HF             //
    Molecular point group: c1
  Charge       = 0
  Multiplicity = 1
  Basis Set: AUG-CC-PVDZ
    Blend: AUG-CC-PVDZ
  Basis Set: (AUG-CC-PVDZ AUX)
    Blend: AUG-CC-PVDZ-JKFIT
  @DF-RHF Final Energy:  -455.68821331581796
    Total Energy =                       -455.6882133158179613
  //            Monomer A HF           //
    Molecular point group: c1
  Multiplicity = 1
  Basis Set: AUG-CC-PVDZ
    Blend: AUG-CC-PVDZ
  Basis Set: (AUG-CC-PVDZ AUX)
    Blend: AUG-CC-PVDZ-JKFIT
  @DF-RHF Final Energy:  -227.84408589398839
    Total Energy =                       -227.8440858939883924
  //            Monomer B HF           //
    Molecular point group: c1

    Geometry (in Bohr), charge = 0, multiplicity = 1:

       Center              X                  Y                   Z               Mass
    ------------   -----------------  -----------------  -----------------  -----------------
      Gh(O)          -5.531022370000     2.939402900000     1.977626240000    15.994914619570
      Gh(O)          -2.407088860000     0.908177340000     0.049059090000    15.994914619570
      Gh(H)          -0.503048870000     1.375792050000     4.638809080000     1.007825032230
      Gh(H)           0.000000000000     4.251042850000     3.090722380000     1.007825032230
      Gh(H)          -2.389482150000     4.019167790000     5.401950410000     1.007825032230
      Gh(H)          -3.747714110000     0.471479300000    -1.215575120000     1.007825032230
      Gh(C)          -1.418597820000     2.985005000000     3.844051900000    12.000000000000
      Gh(C)          -3.322637810000     2.286288140000     1.912214130000    12.000000000000
         O           19.621421330000    -4.789765920000    -8.924392750000    15.994914619570
         O           22.745354840000    -6.820991490000   -10.852959900000    15.994914619570
         H           24.649394830000    -6.353376770000    -6.263209910000     1.007825032230
         H           25.152443700000    -3.478125970000    -7.811296610000     1.007825032230
         H           22.762961550000    -3.710001040000    -5.500068580000     1.007825032230
         H           21.404729590000    -7.257689530000   -12.117594110000     1.007825032230
         C           23.733845880000    -4.744163830000    -7.057967090000    12.000000000000
         C           21.829805890000    -5.442880690000    -8.989804860000    12.000000000000

  Charge       = 0
  Multiplicity = 1
  Basis Set: AUG-CC-PVDZ
    Blend: AUG-CC-PVDZ
  Basis Set: (AUG-CC-PVDZ AUX)
    Blend: AUG-CC-PVDZ-JKFIT

    Orbital Energies [Eh]
    ---------------------

    Doubly Occupied:

       1A    -20.629476     2A    -20.552804     3A    -11.396108
       4A    -11.250979     5A     -1.475853     6A     -1.357486
       7A     -1.032999     8A     -0.837930     9A     -0.703065
      10A     -0.688465    11A     -0.657749    12A     -0.576538
      13A     -0.569697    14A     -0.561403    15A     -0.475343
      16A     -0.452434

  @DF-RHF Final Energy:  -227.84408589513339

   => Energetics <=

    Nuclear Repulsion Energy =            121.7484301666480633
    One-Electron Energy =                -552.7483713462119113
    Two-Electron Energy =                 203.1558552844304586
    Total Energy =                       -227.8440858951333894

  Dipole Moment: [D]
     X:     2.1048      Y:    -0.7191      Z:    -0.2116     Total:     2.2342

    SAPT Results
  --------------------------------------------------------------------------------------------------------
    Electrostatics                 -0.04130120 [mEh]      -0.02591690 [kcal/mol]      -0.10843629 [kJ/mol]
      Elst10,r                     -0.04130120 [mEh]      -0.02591690 [kcal/mol]      -0.10843629 [kJ/mol]

    Exchange                        0.00000000 [mEh]       0.00000000 [kcal/mol]       0.00000000 [kJ/mol]
      Exch10                        0.00000000 [mEh]       0.00000000 [kcal/mol]       0.00000000 [kJ/mol]
      Exch10(S^2)                   0.00000000 [mEh]       0.00000000 [kcal/mol]       0.00000000 [kJ/mol]

    Induction                      -0.00022549 [mEh]      -0.00014150 [kcal/mol]      -0.00059203 [kJ/mol]
      Ind20,r                      -0.00020803 [mEh]      -0.00013054 [kcal/mol]      -0.00054618 [kJ/mol]
      Exch-Ind20,r                  0.00000000 [mEh]       0.00000000 [kcal/mol]       0.00000000 [kJ/mol]
      delta HF,r (2)               -0.00001747 [mEh]      -0.00001096 [kcal/mol]      -0.00004586 [kJ/mol]

    Dispersion                     -0.00123852 [mEh]      -0.00077718 [kcal/mol]      -0.00325172 [kJ/mol]
      Disp20                       -0.00123852 [mEh]      -0.00077718 [kcal/mol]      -0.00325172 [kJ/mol]
      Exch-Disp20                   0.00000000 [mEh]       0.00000000 [kcal/mol]       0.00000000 [kJ/mol]
      Disp20 (SS)                  -0.00061926 [mEh]      -0.00038859 [kcal/mol]      -0.00162586 [kJ/mol]
      Disp20 (OS)                  -0.00061926 [mEh]      -0.00038859 [kcal/mol]      -0.00162586 [kJ/mol]
      Exch-Disp20 (SS)              0.00000000 [mEh]       0.00000000 [kcal/mol]       0.00000000 [kJ/mol]
      Exch-Disp20 (OS)              0.00000000 [mEh]       0.00000000 [kcal/mol]       0.00000000 [kJ/mol]

  Total HF                         -0.04152670 [mEh]      -0.02605840 [kcal/mol]      -0.10902833 [kJ/mol]
  Total SAPT0                      -0.04276521 [mEh]      -0.02683558 [kcal/mol]      -0.11228005 [kJ/mol]

  Special recipe for scaled SAPT0 (see Manual):
    Electrostatics sSAPT0          -0.04130120 [mEh]      -0.02591690 [kcal/mol]      -0.10843629 [kJ/mol]
    Exchange sSAPT0                 0.00000000 [mEh]       0.00000000 [kcal/mol]       0.00000000 [kJ/mol]
    Induction sSAPT0               -0.00022549 [mEh]      -0.00014150 [kcal/mol]      -0.00059203 [kJ/mol]
    Dispersion sSAPT0              -0.00123852 [mEh]      -0.00077718 [kcal/mol]      -0.00325172 [kJ/mol]
  Total sSAPT0                     -0.04276521 [mEh]      -0.02683558 [kcal/mol]      -0.11228005 [kJ/mol]
  --------------------------------------------------------------------------------------------------------

*** Psi4 exiting successfully. Buy a developer a beer!
