                               Psi4 1.4rc3

  ==> Input File <==

--------------------------------------------------------------------------
# PSI4 file produced by CrystaLattE

# Generated from:               acetic_acid.xyz
# Psithon input for N-mer:      2mer-0+570
# Number of atoms per monomer:  [8, 8]
# Number of replicas:           2
# COM priority:                 1.344367182380e-05
# Minimum COM separations:      22.255
# Separation priority:          2.097668837724e-05
# Minimum monomer separations:  19.188
# Cutoff priority:              5.785167024055e-07
# Nuclear repulsion energy:     267.8142442693101

memory 7 GB

molecule Dimer_0_570 {
  O           -5.53102237       2.93940290       1.97762624
  O           -2.40708886       0.90817734       0.04905909
  H           -0.50304887       1.37579205       4.63880908
  H            0.00000000       4.25104285       3.09072238
  H           -2.38948215       4.01916779       5.40195041
  H           -3.74771411       0.47147930      -1.21557512
  C           -1.41859782       2.98500500       3.84405190
  C           -3.32263781       2.28628814       1.91221413
--
  O          -17.96136005      -2.78481953     -36.17944022
  O          -21.08529356      -0.75359396     -38.10800738
  H          -22.98933354      -1.22120867     -33.51825739
  H          -23.49238242      -4.09645948     -35.06634408
  H          -21.10290027      -3.86458441     -32.75511606
  H          -19.74466831      -0.31689592     -39.37264158
  C          -22.07378459      -2.83042162     -34.31301457
  C          -20.16974460      -2.13170476     -36.24485234
units = au
no_com
no_reorient
}

set {
  e_convergence 10
  d_convergence 10
  scf_type df
  mp2_type df
  cc_type df
  freeze_core true
}

energy('sapt0/aug-cc-pvdz')

--------------------------------------------------------------------------

  //              Dimer HF             //
    Molecular point group: c1
  Charge       = 0
  Multiplicity = 1
  Basis Set: AUG-CC-PVDZ
    Blend: AUG-CC-PVDZ
  Basis Set: (AUG-CC-PVDZ AUX)
    Blend: AUG-CC-PVDZ-JKFIT
  @DF-RHF Final Energy:  -455.68818419498058
    Total Energy =                       -455.6881841949805789
  //            Monomer A HF           //
    Molecular point group: c1
  Multiplicity = 1
  Basis Set: AUG-CC-PVDZ
    Blend: AUG-CC-PVDZ
  Basis Set: (AUG-CC-PVDZ AUX)
    Blend: AUG-CC-PVDZ-JKFIT
  @DF-RHF Final Energy:  -227.84408589676883
    Total Energy =                       -227.8440858967688314
  //            Monomer B HF           //
    Molecular point group: c1

    Geometry (in Bohr), charge = 0, multiplicity = 1:

       Center              X                  Y                   Z               Mass
    ------------   -----------------  -----------------  -----------------  -----------------
      Gh(O)          -5.531022370000     2.939402900000     1.977626240000    15.994914619570
      Gh(O)          -2.407088860000     0.908177340000     0.049059090000    15.994914619570
      Gh(H)          -0.503048870000     1.375792050000     4.638809080000     1.007825032230
      Gh(H)           0.000000000000     4.251042850000     3.090722380000     1.007825032230
      Gh(H)          -2.389482150000     4.019167790000     5.401950410000     1.007825032230
      Gh(H)          -3.747714110000     0.471479300000    -1.215575120000     1.007825032230
      Gh(C)          -1.418597820000     2.985005000000     3.844051900000    12.000000000000
      Gh(C)          -3.322637810000     2.286288140000     1.912214130000    12.000000000000
         O          -17.961360050000    -2.784819530000   -36.179440220000    15.994914619570
         O          -21.085293560000    -0.753593960000   -38.108007380000    15.994914619570
         H          -22.989333540000    -1.221208670000   -33.518257390000     1.007825032230
         H          -23.492382420000    -4.096459480000   -35.066344080000     1.007825032230
         H          -21.102900270000    -3.864584410000   -32.755116060000     1.007825032230
         H          -19.744668310000    -0.316895920000   -39.372641580000     1.007825032230
         C          -22.073784590000    -2.830421620000   -34.313014570000    12.000000000000
         C          -20.169744600000    -2.131704760000   -36.244852340000    12.000000000000

  Charge       = 0
  Multiplicity = 1
  Basis Set: AUG-CC-PVDZ
    Blend: AUG-CC-PVDZ
  Basis Set: (AUG-CC-PVDZ AUX)
    Blend: AUG-CC-PVDZ-JKFIT

    Orbital Energies [Eh]
    ---------------------

    Doubly Occupied:

       1A    -20.629476     2A    -20.552804     3A    -11.396108
       4A    -11.250979     5A     -1.475853     6A     -1.357486
       7A     -1.032999     8A     -0.837930     9A     -0.703065
      10A     -0.688465    11A     -0.657749    12A     -0.576538
      13A     -0.569697    14A     -0.561403    15A     -0.475343
      16A     -0.452434

  @DF-RHF Final Energy:  -227.84408589625571

   => Energetics <=

    Nuclear Repulsion Energy =            121.7484302524313335
    One-Electron Energy =                -552.7483715141697758
    Two-Electron Energy =                 203.1558553654827506
    Total Energy =                       -227.8440858962557058

  Dipole Moment: [D]
     X:    -2.1048      Y:     0.7191      Z:    -0.2116     Total:     2.2342

    SAPT Results
  --------------------------------------------------------------------------------------------------------
    Electrostatics                 -0.01238100 [mEh]      -0.00776920 [kcal/mol]      -0.03250632 [kJ/mol]
      Elst10,r                     -0.01238100 [mEh]      -0.00776920 [kcal/mol]      -0.03250632 [kJ/mol]

    Exchange                       -0.00000000 [mEh]      -0.00000000 [kcal/mol]      -0.00000000 [kJ/mol]
      Exch10                       -0.00000000 [mEh]      -0.00000000 [kcal/mol]      -0.00000000 [kJ/mol]
      Exch10(S^2)                  -0.00000000 [mEh]      -0.00000000 [kcal/mol]      -0.00000000 [kJ/mol]

    Induction                      -0.00002095 [mEh]      -0.00001315 [kcal/mol]      -0.00005501 [kJ/mol]
      Ind20,r                      -0.00000758 [mEh]      -0.00000475 [kcal/mol]      -0.00001989 [kJ/mol]
      Exch-Ind20,r                  0.00000000 [mEh]       0.00000000 [kcal/mol]       0.00000000 [kJ/mol]
      delta HF,r (2)               -0.00001338 [mEh]      -0.00000839 [kcal/mol]      -0.00003512 [kJ/mol]

    Dispersion                     -0.00010135 [mEh]      -0.00006360 [kcal/mol]      -0.00026610 [kJ/mol]
      Disp20                       -0.00010135 [mEh]      -0.00006360 [kcal/mol]      -0.00026610 [kJ/mol]
      Exch-Disp20                   0.00000000 [mEh]       0.00000000 [kcal/mol]       0.00000000 [kJ/mol]
      Disp20 (SS)                  -0.00005068 [mEh]      -0.00003180 [kcal/mol]      -0.00013305 [kJ/mol]
      Disp20 (OS)                  -0.00005068 [mEh]      -0.00003180 [kcal/mol]      -0.00013305 [kJ/mol]
      Exch-Disp20 (SS)              0.00000000 [mEh]       0.00000000 [kcal/mol]       0.00000000 [kJ/mol]
      Exch-Disp20 (OS)              0.00000000 [mEh]       0.00000000 [kcal/mol]       0.00000000 [kJ/mol]

  Total HF                         -0.01240196 [mEh]      -0.00778234 [kcal/mol]      -0.03256133 [kJ/mol]
  Total SAPT0                      -0.01250331 [mEh]      -0.00784594 [kcal/mol]      -0.03282743 [kJ/mol]

  Special recipe for scaled SAPT0 (see Manual):
    Electrostatics sSAPT0          -0.01238100 [mEh]      -0.00776920 [kcal/mol]      -0.03250632 [kJ/mol]
    Exchange sSAPT0                -0.00000000 [mEh]      -0.00000000 [kcal/mol]      -0.00000000 [kJ/mol]
    Induction sSAPT0               -0.00002095 [mEh]      -0.00001315 [kcal/mol]      -0.00005501 [kJ/mol]
    Dispersion sSAPT0              -0.00010135 [mEh]      -0.00006360 [kcal/mol]      -0.00026610 [kJ/mol]
  Total sSAPT0                     -0.01250331 [mEh]      -0.00784594 [kcal/mol]      -0.03282743 [kJ/mol]
  --------------------------------------------------------------------------------------------------------

*** Psi4 exiting successfully. Buy a developer a beer!
