                               Psi4 1.4rc3

  ==> Input File <==

--------------------------------------------------------------------------
# PSI4 file produced by CrystaLattE

# Generated from:               acetic_acid.xyz
# Psithon input for N-mer:      2mer-0+10
# Number of atoms per monomer:  [8, 8]
# Number of replicas:           2
# COM priority:                 1.886350351073e-03
# Minimum COM separations:      4.283
# Separation priority:          4.459040623844e-03
# Minimum monomer separations:  3.215
# Cutoff priority:              7.339310113155e-04
# Nuclear repulsion energy:     364.24124107170655

memory 7 GB

molecule Dimer_0_10 {
  O           -5.53102237       2.93940290       1.97762624
  O           -2.40708886       0.90817734       0.04905909
  H           -0.50304887       1.37579205       4.63880908
  H            0.00000000       4.25104285       3.09072238
  H           -2.38948215       4.01916779       5.40195041
  H           -3.74771411       0.47147930      -1.21557512
  C           -1.41859782       2.98500500       3.84405190
  C           -3.32263781       2.28628814       1.91221413
--
  O           -5.38513820      -0.92518151       7.42863574
  O           -8.50907170      -2.95640708       5.50006858
  H          -10.41311169      -2.48879236      10.08981858
  H          -10.91616057       0.38645844       8.54173188
  H           -8.52667842       0.15458338      10.85295990
  H           -7.16844646      -3.39310511       4.23543438
  C           -9.49756274      -0.87957941       9.29506139
  C           -7.59352275      -1.57829627       7.36322363
units = au
no_com
no_reorient
}

set {
  e_convergence 10
  d_convergence 10
  scf_type df
  mp2_type df
  cc_type df
  freeze_core true
}

energy('sapt0/aug-cc-pvdz')

--------------------------------------------------------------------------

  //              Dimer HF             //
    Molecular point group: c1
  Charge       = 0
  Multiplicity = 1
  Basis Set: AUG-CC-PVDZ
    Blend: AUG-CC-PVDZ
  Basis Set: (AUG-CC-PVDZ AUX)
    Blend: AUG-CC-PVDZ-JKFIT
  @DF-RHF Final Energy:  -455.69019834755852
    Total Energy =                       -455.6901983475585212
  //            Monomer A HF           //
    Molecular point group: c1
  Multiplicity = 1
  Basis Set: AUG-CC-PVDZ
    Blend: AUG-CC-PVDZ
  Basis Set: (AUG-CC-PVDZ AUX)
    Blend: AUG-CC-PVDZ-JKFIT
  @DF-RHF Final Energy:  -227.84432907369859
    Total Energy =                       -227.8443290736985887
  //            Monomer B HF           //
    Molecular point group: c1

    Geometry (in Bohr), charge = 0, multiplicity = 1:

       Center              X                  Y                   Z               Mass
    ------------   -----------------  -----------------  -----------------  -----------------
      Gh(O)          -5.531022370000     2.939402900000     1.977626240000    15.994914619570
      Gh(O)          -2.407088860000     0.908177340000     0.049059090000    15.994914619570
      Gh(H)          -0.503048870000     1.375792050000     4.638809080000     1.007825032230
      Gh(H)           0.000000000000     4.251042850000     3.090722380000     1.007825032230
      Gh(H)          -2.389482150000     4.019167790000     5.401950410000     1.007825032230
      Gh(H)          -3.747714110000     0.471479300000    -1.215575120000     1.007825032230
      Gh(C)          -1.418597820000     2.985005000000     3.844051900000    12.000000000000
      Gh(C)          -3.322637810000     2.286288140000     1.912214130000    12.000000000000
         O           -5.385138200000    -0.925181510000     7.428635740000    15.994914619570
         O           -8.509071700000    -2.956407080000     5.500068580000    15.994914619570
         H          -10.413111690000    -2.488792360000    10.089818580000     1.007825032230
         H          -10.916160570000     0.386458440000     8.541731880000     1.007825032230
         H           -8.526678420000     0.154583380000    10.852959900000     1.007825032230
         H           -7.168446460000    -3.393105110000     4.235434380000     1.007825032230
         C           -9.497562740000    -0.879579410000     9.295061390000    12.000000000000
         C           -7.593522750000    -1.578296270000     7.363223630000    12.000000000000

  Charge       = 0
  Multiplicity = 1
  Basis Set: AUG-CC-PVDZ
    Blend: AUG-CC-PVDZ
  Basis Set: (AUG-CC-PVDZ AUX)
    Blend: AUG-CC-PVDZ-JKFIT

    Orbital Energies [Eh]
    ---------------------

    Doubly Occupied:

       1A    -20.629532     2A    -20.552904     3A    -11.396132
       4A    -11.250927     5A     -1.475813     6A     -1.357456
       7A     -1.032988     8A     -0.837897     9A     -0.703036
      10A     -0.688440    11A     -0.657752    12A     -0.576514
      13A     -0.569688    14A     -0.561401    15A     -0.475319
      16A     -0.452415

  @DF-RHF Final Energy:  -227.84429956945513

   => Energetics <=

    Nuclear Repulsion Energy =            121.7484302710012543
    One-Electron Energy =                -552.7490329043587280
    Two-Electron Energy =                 203.1563030639023282
    Total Energy =                       -227.8442995694551314

  Dipole Moment: [D]
     X:    -2.1019      Y:    -0.7204      Z:    -0.2102     Total:     2.2319

    SAPT Results
  --------------------------------------------------------------------------------------------------------
    Electrostatics                 -2.31674796 [mEh]      -1.45378130 [kcal/mol]      -6.08262094 [kJ/mol]
      Elst10,r                     -2.31674796 [mEh]      -1.45378130 [kcal/mol]      -6.08262094 [kJ/mol]

    Exchange                        1.25929937 [mEh]       0.79022229 [kcal/mol]       3.30629004 [kJ/mol]
      Exch10                        1.25929937 [mEh]       0.79022229 [kcal/mol]       3.30629004 [kJ/mol]
      Exch10(S^2)                   1.25844567 [mEh]       0.78968658 [kcal/mol]       3.30404866 [kJ/mol]

    Induction                      -0.51225581 [mEh]      -0.32144538 [kcal/mol]      -1.34492745 [kJ/mol]
      Ind20,r                      -0.73869233 [mEh]      -0.46353643 [kcal/mol]      -1.93943644 [kJ/mol]
      Exch-Ind20,r                  0.29786168 [mEh]       0.18691102 [kcal/mol]       0.78203572 [kJ/mol]
      delta HF,r (2)               -0.07142516 [mEh]      -0.04481996 [kcal/mol]      -0.18752673 [kJ/mol]

    Dispersion                     -2.49778662 [mEh]      -1.56738477 [kcal/mol]      -6.55793786 [kJ/mol]
      Disp20                       -2.65335312 [mEh]      -1.66500422 [kcal/mol]      -6.96637765 [kJ/mol]
      Exch-Disp20                   0.15556650 [mEh]       0.09761945 [kcal/mol]       0.40843978 [kJ/mol]
      Disp20 (SS)                  -1.32667656 [mEh]      -0.83250211 [kcal/mol]      -3.48318882 [kJ/mol]
      Disp20 (OS)                  -1.32667656 [mEh]      -0.83250211 [kcal/mol]      -3.48318882 [kJ/mol]
      Exch-Disp20 (SS)              0.10011313 [mEh]       0.06282193 [kcal/mol]       0.26284697 [kJ/mol]
      Exch-Disp20 (OS)              0.05545337 [mEh]       0.03479752 [kcal/mol]       0.14559281 [kJ/mol]

  Total HF                         -1.56970440 [mEh]      -0.98500439 [kcal/mol]      -4.12125835 [kJ/mol]
  Total SAPT0                      -4.06749102 [mEh]      -2.55238915 [kcal/mol]     -10.67919621 [kJ/mol]

  Special recipe for scaled SAPT0 (see Manual):
    Electrostatics sSAPT0          -2.31674796 [mEh]      -1.45378130 [kcal/mol]      -6.08262094 [kJ/mol]
    Exchange sSAPT0                 1.25929937 [mEh]       0.79022229 [kcal/mol]       3.30629004 [kJ/mol]
    Induction sSAPT0               -0.51164922 [mEh]      -0.32106473 [kcal/mol]      -1.34333483 [kJ/mol]
    Dispersion sSAPT0              -2.49746981 [mEh]      -1.56718596 [kcal/mol]      -6.55710607 [kJ/mol]
  Total sSAPT0                     -4.06656762 [mEh]      -2.55180970 [kcal/mol]     -10.67677180 [kJ/mol]
  --------------------------------------------------------------------------------------------------------

*** Psi4 exiting successfully. Buy a developer a beer!
