                               Psi4 1.4rc3

  ==> Input File <==

--------------------------------------------------------------------------
# PSI4 file produced by CrystaLattE

# Generated from:               acetic_acid.xyz
# Psithon input for N-mer:      2mer-0+165
# Number of atoms per monomer:  [8, 8]
# Number of replicas:           2
# COM priority:                 3.781730004502e-05
# Minimum COM separations:      15.765
# Separation priority:          8.482164928620e-05
# Minimum monomer separations:  12.044
# Cutoff priority:              3.726853176670e-06
# Nuclear repulsion energy:     277.90067641180406

memory 7 GB

molecule Dimer_0_165 {
  O           -5.53102237       2.93940290       1.97762624
  O           -2.40708886       0.90817734       0.04905909
  H           -0.50304887       1.37579205       4.63880908
  H            0.00000000       4.25104285       3.09072238
  H           -2.38948215       4.01916779       5.40195041
  H           -3.74771411       0.47147930      -1.21557512
  C           -1.41859782       2.98500500       3.84405190
  C           -3.32263781       2.28628814       1.91221413
--
  O          -18.10724422     -14.37857277     -19.82641174
  O          -14.98331071     -12.34734720     -21.75497890
  H          -13.07927073     -12.81496191     -17.16522890
  H          -12.57622185     -15.69021272     -18.71331560
  H          -14.96570400     -15.45833765     -16.40208757
  H          -16.32393596     -11.91064916     -23.01961310
  C          -13.99481968     -14.42417486     -17.95998608
  C          -15.89885966     -13.72545800     -19.89182385
units = au
no_com
no_reorient
}

set {
  e_convergence 10
  d_convergence 10
  scf_type df
  mp2_type df
  cc_type df
  freeze_core true
}

energy('sapt0/aug-cc-pvdz')

--------------------------------------------------------------------------

  //              Dimer HF             //
    Molecular point group: c1
  Charge       = 0
  Multiplicity = 1
  Basis Set: AUG-CC-PVDZ
    Blend: AUG-CC-PVDZ
  Basis Set: (AUG-CC-PVDZ AUX)
    Blend: AUG-CC-PVDZ-JKFIT
  @DF-RHF Final Energy:  -455.68814199121908
    Total Energy =                       -455.6881419912190836
  //            Monomer A HF           //
    Molecular point group: c1
  Multiplicity = 1
  Basis Set: AUG-CC-PVDZ
    Blend: AUG-CC-PVDZ
  Basis Set: (AUG-CC-PVDZ AUX)
    Blend: AUG-CC-PVDZ-JKFIT
  @DF-RHF Final Energy:  -227.84408589826151
    Total Energy =                       -227.8440858982615111
  //            Monomer B HF           //
    Molecular point group: c1

    Geometry (in Bohr), charge = 0, multiplicity = 1:

       Center              X                  Y                   Z               Mass
    ------------   -----------------  -----------------  -----------------  -----------------
      Gh(O)          -5.531022370000     2.939402900000     1.977626240000    15.994914619570
      Gh(O)          -2.407088860000     0.908177340000     0.049059090000    15.994914619570
      Gh(H)          -0.503048870000     1.375792050000     4.638809080000     1.007825032230
      Gh(H)           0.000000000000     4.251042850000     3.090722380000     1.007825032230
      Gh(H)          -2.389482150000     4.019167790000     5.401950410000     1.007825032230
      Gh(H)          -3.747714110000     0.471479300000    -1.215575120000     1.007825032230
      Gh(C)          -1.418597820000     2.985005000000     3.844051900000    12.000000000000
      Gh(C)          -3.322637810000     2.286288140000     1.912214130000    12.000000000000
         O          -18.107244220000   -14.378572770000   -19.826411740000    15.994914619570
         O          -14.983310710000   -12.347347200000   -21.754978900000    15.994914619570
         H          -13.079270730000   -12.814961910000   -17.165228900000     1.007825032230
         H          -12.576221850000   -15.690212720000   -18.713315600000     1.007825032230
         H          -14.965704000000   -15.458337650000   -16.402087570000     1.007825032230
         H          -16.323935960000   -11.910649160000   -23.019613100000     1.007825032230
         C          -13.994819680000   -14.424174860000   -17.959986080000    12.000000000000
         C          -15.898859660000   -13.725458000000   -19.891823850000    12.000000000000

  Charge       = 0
  Multiplicity = 1
  Basis Set: AUG-CC-PVDZ
    Blend: AUG-CC-PVDZ
  Basis Set: (AUG-CC-PVDZ AUX)
    Blend: AUG-CC-PVDZ-JKFIT

    Orbital Energies [Eh]
    ---------------------

    Doubly Occupied:

       1A    -20.629476     2A    -20.552804     3A    -11.396108
       4A    -11.250979     5A     -1.475853     6A     -1.357486
       7A     -1.032999     8A     -0.837930     9A     -0.703065
      10A     -0.688465    11A     -0.657749    12A     -0.576538
      13A     -0.569697    14A     -0.561403    15A     -0.475343
      16A     -0.452434

  @DF-RHF Final Energy:  -227.84408589310604

   => Energetics <=

    Nuclear Repulsion Energy =            121.7484301263644682
    One-Electron Energy =                -552.7483712648177061
    Two-Electron Energy =                 203.1558552453471691
    Total Energy =                       -227.8440858931060404

  Dipole Moment: [D]
     X:     2.1048      Y:     0.7191      Z:    -0.2116     Total:     2.2342

    SAPT Results
  --------------------------------------------------------------------------------------------------------
    Electrostatics                  0.02988264 [mEh]       0.01875164 [kcal/mol]       0.07845686 [kJ/mol]
      Elst10,r                      0.02988264 [mEh]       0.01875164 [kcal/mol]       0.07845686 [kJ/mol]

    Exchange                       -0.00000000 [mEh]      -0.00000000 [kcal/mol]      -0.00000000 [kJ/mol]
      Exch10                       -0.00000000 [mEh]      -0.00000000 [kcal/mol]      -0.00000000 [kJ/mol]
      Exch10(S^2)                  -0.00000000 [mEh]      -0.00000000 [kcal/mol]      -0.00000000 [kJ/mol]

    Induction                      -0.00008249 [mEh]      -0.00005176 [kcal/mol]      -0.00021658 [kJ/mol]
      Ind20,r                      -0.00006281 [mEh]      -0.00003941 [kcal/mol]      -0.00016491 [kJ/mol]
      Exch-Ind20,r                  0.00000000 [mEh]       0.00000000 [kcal/mol]       0.00000000 [kJ/mol]
      delta HF,r (2)               -0.00001968 [mEh]      -0.00001235 [kcal/mol]      -0.00005167 [kJ/mol]

    Dispersion                     -0.00088295 [mEh]      -0.00055406 [kcal/mol]      -0.00231819 [kJ/mol]
      Disp20                       -0.00088295 [mEh]      -0.00055406 [kcal/mol]      -0.00231819 [kJ/mol]
      Exch-Disp20                   0.00000000 [mEh]       0.00000000 [kcal/mol]       0.00000000 [kJ/mol]
      Disp20 (SS)                  -0.00044148 [mEh]      -0.00027703 [kcal/mol]      -0.00115909 [kJ/mol]
      Disp20 (OS)                  -0.00044148 [mEh]      -0.00027703 [kcal/mol]      -0.00115909 [kJ/mol]
      Exch-Disp20 (SS)              0.00000000 [mEh]       0.00000000 [kcal/mol]       0.00000000 [kJ/mol]
      Exch-Disp20 (OS)              0.00000000 [mEh]       0.00000000 [kcal/mol]       0.00000000 [kJ/mol]

  Total HF                          0.02980015 [mEh]       0.01869988 [kcal/mol]       0.07824028 [kJ/mol]
  Total SAPT0                       0.02891720 [mEh]       0.01814582 [kcal/mol]       0.07592209 [kJ/mol]

  Special recipe for scaled SAPT0 (see Manual):
    Electrostatics sSAPT0           0.02988264 [mEh]       0.01875164 [kcal/mol]       0.07845686 [kJ/mol]
    Exchange sSAPT0                -0.00000000 [mEh]      -0.00000000 [kcal/mol]      -0.00000000 [kJ/mol]
    Induction sSAPT0               -0.00008249 [mEh]      -0.00005176 [kcal/mol]      -0.00021658 [kJ/mol]
    Dispersion sSAPT0              -0.00088295 [mEh]      -0.00055406 [kcal/mol]      -0.00231819 [kJ/mol]
  Total sSAPT0                      0.02891720 [mEh]       0.01814582 [kcal/mol]       0.07592209 [kJ/mol]
  --------------------------------------------------------------------------------------------------------

*** Psi4 exiting successfully. Buy a developer a beer!
