                               Psi4 1.4rc3

  ==> Input File <==

--------------------------------------------------------------------------
# PSI4 file produced by CrystaLattE

# Generated from:               acetic_acid.xyz
# Psithon input for N-mer:      2mer-0+223
# Number of atoms per monomer:  [8, 8]
# Number of replicas:           2
# COM priority:                 2.878950451902e-05
# Minimum COM separations:      17.266
# Separation priority:          5.319951162319e-05
# Minimum monomer separations:  14.070
# Cutoff priority:              2.000830015862e-06
# Nuclear repulsion energy:     274.92344266458275

memory 7 GB

molecule Dimer_0_223 {
  O           -5.53102237       2.93940290       1.97762624
  O           -2.40708886       0.90817734       0.04905909
  H           -0.50304887       1.37579205       4.63880908
  H            0.00000000       4.25104285       3.09072238
  H           -2.38948215       4.01916779       5.40195041
  H           -3.74771411       0.47147930      -1.21557512
  C           -1.41859782       2.98500500       3.84405190
  C           -3.32263781       2.28628814       1.91221413
--
  O           19.76730551      22.26232497     -14.37540224
  O           16.64337200      20.23109940     -16.30396940
  H           14.73933201      20.69871412     -11.71421941
  H           14.23628314      23.57396492     -13.26230610
  H           16.62576529      23.34208985     -10.95107808
  H           17.98399725      19.79440136     -17.56860360
  C           15.65488096      22.30792706     -12.50897659
  C           17.55892095      21.60921020     -14.44081435
units = au
no_com
no_reorient
}

set {
  e_convergence 10
  d_convergence 10
  scf_type df
  mp2_type df
  cc_type df
  freeze_core true
}

energy('sapt0/aug-cc-pvdz')

--------------------------------------------------------------------------

  //              Dimer HF             //
    Molecular point group: c1
  Charge       = 0
  Multiplicity = 1
  Basis Set: AUG-CC-PVDZ
    Blend: AUG-CC-PVDZ
  Basis Set: (AUG-CC-PVDZ AUX)
    Blend: AUG-CC-PVDZ-JKFIT
  @DF-RHF Final Energy:  -455.68816715530886
    Total Energy =                       -455.6881671553088609
  //            Monomer A HF           //
    Molecular point group: c1
  Multiplicity = 1
  Basis Set: AUG-CC-PVDZ
    Blend: AUG-CC-PVDZ
  Basis Set: (AUG-CC-PVDZ AUX)
    Blend: AUG-CC-PVDZ-JKFIT
  @DF-RHF Final Energy:  -227.84408589259601
    Total Energy =                       -227.8440858925960129
  //            Monomer B HF           //
    Molecular point group: c1

    Geometry (in Bohr), charge = 0, multiplicity = 1:

       Center              X                  Y                   Z               Mass
    ------------   -----------------  -----------------  -----------------  -----------------
      Gh(O)          -5.531022370000     2.939402900000     1.977626240000    15.994914619570
      Gh(O)          -2.407088860000     0.908177340000     0.049059090000    15.994914619570
      Gh(H)          -0.503048870000     1.375792050000     4.638809080000     1.007825032230
      Gh(H)           0.000000000000     4.251042850000     3.090722380000     1.007825032230
      Gh(H)          -2.389482150000     4.019167790000     5.401950410000     1.007825032230
      Gh(H)          -3.747714110000     0.471479300000    -1.215575120000     1.007825032230
      Gh(C)          -1.418597820000     2.985005000000     3.844051900000    12.000000000000
      Gh(C)          -3.322637810000     2.286288140000     1.912214130000    12.000000000000
         O           19.767305510000    22.262324970000   -14.375402240000    15.994914619570
         O           16.643372000000    20.231099400000   -16.303969400000    15.994914619570
         H           14.739332010000    20.698714120000   -11.714219410000     1.007825032230
         H           14.236283140000    23.573964920000   -13.262306100000     1.007825032230
         H           16.625765290000    23.342089850000   -10.951078080000     1.007825032230
         H           17.983997250000    19.794401360000   -17.568603600000     1.007825032230
         C           15.654880960000    22.307927060000   -12.508976590000    12.000000000000
         C           17.558920950000    21.609210200000   -14.440814350000    12.000000000000

  Charge       = 0
  Multiplicity = 1
  Basis Set: AUG-CC-PVDZ
    Blend: AUG-CC-PVDZ
  Basis Set: (AUG-CC-PVDZ AUX)
    Blend: AUG-CC-PVDZ-JKFIT

    Orbital Energies [Eh]
    ---------------------

    Doubly Occupied:

       1A    -20.629476     2A    -20.552804     3A    -11.396108
       4A    -11.250979     5A     -1.475853     6A     -1.357486
       7A     -1.032999     8A     -0.837930     9A     -0.703065
      10A     -0.688465    11A     -0.657749    12A     -0.576538
      13A     -0.569697    14A     -0.561403    15A     -0.475343
      16A     -0.452434

  @DF-RHF Final Energy:  -227.84408589210315

   => Energetics <=

    Nuclear Repulsion Energy =            121.7484301639083100
    One-Electron Energy =                -552.7483713258584430
    Two-Electron Energy =                 203.1558552698469668
    Total Energy =                       -227.8440858921031520

  Dipole Moment: [D]
     X:    -2.1048      Y:    -0.7191      Z:    -0.2116     Total:     2.2342

    SAPT Results
  --------------------------------------------------------------------------------------------------------
    Electrostatics                  0.00469121 [mEh]       0.00294378 [kcal/mol]       0.01231678 [kJ/mol]
      Elst10,r                      0.00469121 [mEh]       0.00294378 [kcal/mol]       0.01231678 [kJ/mol]

    Exchange                       -0.00000000 [mEh]      -0.00000000 [kcal/mol]      -0.00000000 [kJ/mol]
      Exch10                       -0.00000000 [mEh]      -0.00000000 [kcal/mol]      -0.00000000 [kJ/mol]
      Exch10(S^2)                  -0.00000000 [mEh]      -0.00000000 [kcal/mol]      -0.00000000 [kJ/mol]

    Induction                      -0.00006182 [mEh]      -0.00003879 [kcal/mol]      -0.00016231 [kJ/mol]
      Ind20,r                      -0.00002662 [mEh]      -0.00001670 [kcal/mol]      -0.00006989 [kJ/mol]
      Exch-Ind20,r                  0.00000000 [mEh]       0.00000000 [kcal/mol]       0.00000000 [kJ/mol]
      delta HF,r (2)               -0.00003520 [mEh]      -0.00002209 [kcal/mol]      -0.00009242 [kJ/mol]

    Dispersion                     -0.00050780 [mEh]      -0.00031865 [kcal/mol]      -0.00133324 [kJ/mol]
      Disp20                       -0.00050780 [mEh]      -0.00031865 [kcal/mol]      -0.00133324 [kJ/mol]
      Exch-Disp20                   0.00000000 [mEh]       0.00000000 [kcal/mol]       0.00000000 [kJ/mol]
      Disp20 (SS)                  -0.00025390 [mEh]      -0.00015933 [kcal/mol]      -0.00066662 [kJ/mol]
      Disp20 (OS)                  -0.00025390 [mEh]      -0.00015933 [kcal/mol]      -0.00066662 [kJ/mol]
      Exch-Disp20 (SS)              0.00000000 [mEh]       0.00000000 [kcal/mol]       0.00000000 [kJ/mol]
      Exch-Disp20 (OS)              0.00000000 [mEh]       0.00000000 [kcal/mol]       0.00000000 [kJ/mol]

  Total HF                          0.00462939 [mEh]       0.00290499 [kcal/mol]       0.01215446 [kJ/mol]
  Total SAPT0                       0.00412159 [mEh]       0.00258633 [kcal/mol]       0.01082122 [kJ/mol]

  Special recipe for scaled SAPT0 (see Manual):
    Electrostatics sSAPT0           0.00469121 [mEh]       0.00294378 [kcal/mol]       0.01231678 [kJ/mol]
    Exchange sSAPT0                -0.00000000 [mEh]      -0.00000000 [kcal/mol]      -0.00000000 [kJ/mol]
    Induction sSAPT0               -0.00006182 [mEh]      -0.00003879 [kcal/mol]      -0.00016231 [kJ/mol]
    Dispersion sSAPT0              -0.00050780 [mEh]      -0.00031865 [kcal/mol]      -0.00133324 [kJ/mol]
  Total sSAPT0                      0.00412159 [mEh]       0.00258633 [kcal/mol]       0.01082122 [kJ/mol]
  --------------------------------------------------------------------------------------------------------

*** Psi4 exiting successfully. Buy a developer a beer!
