                               Psi4 1.4rc3

  ==> Input File <==

--------------------------------------------------------------------------
# PSI4 file produced by CrystaLattE

# Generated from:               acetic_acid.xyz
# Psithon input for N-mer:      2mer-0+62
# Number of atoms per monomer:  [8, 8]
# Number of replicas:           2
# COM priority:                 1.145619808861e-04
# Minimum COM separations:      10.896
# Separation priority:          2.216253441126e-04
# Minimum monomer separations:  8.744
# Cutoff priority:              1.341196970909e-05
# Nuclear repulsion energy:     293.02008576547803

memory 7 GB

molecule Dimer_0_62 {
  O           -5.53102237       2.93940290       1.97762624
  O           -2.40708886       0.90817734       0.04905909
  H           -0.50304887       1.37579205       4.63880908
  H            0.00000000       4.25104285       3.09072238
  H           -2.38948215       4.01916779       5.40195041
  H           -3.74771411       0.47147930      -1.21557512
  C           -1.41859782       2.98500500       3.84405190
  C           -3.32263781       2.28628814       1.91221413
--
  O           -5.38513820     -16.38351916      -3.47338325
  O           -8.50907170     -18.41474473      -5.40195041
  H          -10.41311169     -17.94713001      -0.81220041
  H          -10.91616057     -15.07187921      -2.36028711
  H           -8.52667842     -15.30375427      -0.04905909
  H           -7.16844646     -18.85144277      -6.66658461
  C           -9.49756274     -16.33791706      -1.60695760
  C           -7.59352275     -17.03663393      -3.53879536
units = au
no_com
no_reorient
}

set {
  e_convergence 10
  d_convergence 10
  scf_type df
  mp2_type df
  cc_type df
  freeze_core true
}

energy('sapt0/aug-cc-pvdz')

--------------------------------------------------------------------------

  //              Dimer HF             //
    Molecular point group: c1
  Charge       = 0
  Multiplicity = 1
  Basis Set: AUG-CC-PVDZ
    Blend: AUG-CC-PVDZ
  Basis Set: (AUG-CC-PVDZ AUX)
    Blend: AUG-CC-PVDZ-JKFIT
  @DF-RHF Final Energy:  -455.68828581011508
    Total Energy =                       -455.6882858101150759
  //            Monomer A HF           //
    Molecular point group: c1
  Multiplicity = 1
  Basis Set: AUG-CC-PVDZ
    Blend: AUG-CC-PVDZ
  Basis Set: (AUG-CC-PVDZ AUX)
    Blend: AUG-CC-PVDZ-JKFIT
  @DF-RHF Final Energy:  -227.84408609976029
    Total Energy =                       -227.8440860997602897
  //            Monomer B HF           //
    Molecular point group: c1

    Geometry (in Bohr), charge = 0, multiplicity = 1:

       Center              X                  Y                   Z               Mass
    ------------   -----------------  -----------------  -----------------  -----------------
      Gh(O)          -5.531022370000     2.939402900000     1.977626240000    15.994914619570
      Gh(O)          -2.407088860000     0.908177340000     0.049059090000    15.994914619570
      Gh(H)          -0.503048870000     1.375792050000     4.638809080000     1.007825032230
      Gh(H)           0.000000000000     4.251042850000     3.090722380000     1.007825032230
      Gh(H)          -2.389482150000     4.019167790000     5.401950410000     1.007825032230
      Gh(H)          -3.747714110000     0.471479300000    -1.215575120000     1.007825032230
      Gh(C)          -1.418597820000     2.985005000000     3.844051900000    12.000000000000
      Gh(C)          -3.322637810000     2.286288140000     1.912214130000    12.000000000000
         O           -5.385138200000   -16.383519160000    -3.473383250000    15.994914619570
         O           -8.509071700000   -18.414744730000    -5.401950410000    15.994914619570
         H          -10.413111690000   -17.947130010000    -0.812200410000     1.007825032230
         H          -10.916160570000   -15.071879210000    -2.360287110000     1.007825032230
         H           -8.526678420000   -15.303754270000    -0.049059090000     1.007825032230
         H           -7.168446460000   -18.851442770000    -6.666584610000     1.007825032230
         C           -9.497562740000   -16.337917060000    -1.606957600000    12.000000000000
         C           -7.593522750000   -17.036633930000    -3.538795360000    12.000000000000

  Charge       = 0
  Multiplicity = 1
  Basis Set: AUG-CC-PVDZ
    Blend: AUG-CC-PVDZ
  Basis Set: (AUG-CC-PVDZ AUX)
    Blend: AUG-CC-PVDZ-JKFIT

    Orbital Energies [Eh]
    ---------------------

    Doubly Occupied:

       1A    -20.629476     2A    -20.552804     3A    -11.396108
       4A    -11.250979     5A     -1.475852     6A     -1.357486
       7A     -1.032999     8A     -0.837930     9A     -0.703065
      10A     -0.688465    11A     -0.657749    12A     -0.576538
      13A     -0.569697    14A     -0.561403    15A     -0.475343
      16A     -0.452433

  @DF-RHF Final Energy:  -227.84408631251063

   => Energetics <=

    Nuclear Repulsion Energy =            121.7484302657749993
    One-Electron Energy =                -552.7483739189374319
    Two-Electron Energy =                 203.1558573406517780
    Total Energy =                       -227.8440863125106262

  Dipole Moment: [D]
     X:    -2.1047      Y:    -0.7191      Z:    -0.2116     Total:     2.2342

    SAPT Results
  --------------------------------------------------------------------------------------------------------
    Electrostatics                 -0.11259089 [mEh]      -0.07065185 [kcal/mol]      -0.29560734 [kJ/mol]
      Elst10,r                     -0.11259089 [mEh]      -0.07065185 [kcal/mol]      -0.29560734 [kJ/mol]

    Exchange                       -0.00000006 [mEh]      -0.00000004 [kcal/mol]      -0.00000016 [kJ/mol]
      Exch10                       -0.00000006 [mEh]      -0.00000004 [kcal/mol]      -0.00000016 [kJ/mol]
      Exch10(S^2)                  -0.00000006 [mEh]      -0.00000004 [kcal/mol]      -0.00000016 [kJ/mol]

    Induction                      -0.00080689 [mEh]      -0.00050633 [kcal/mol]      -0.00211850 [kJ/mol]
      Ind20,r                      -0.00073058 [mEh]      -0.00045845 [kcal/mol]      -0.00191814 [kJ/mol]
      Exch-Ind20,r                  0.00000025 [mEh]       0.00000016 [kcal/mol]       0.00000067 [kJ/mol]
      delta HF,r (2)               -0.00007656 [mEh]      -0.00004804 [kcal/mol]      -0.00020102 [kJ/mol]

    Dispersion                     -0.00760001 [mEh]      -0.00476908 [kcal/mol]      -0.01995381 [kJ/mol]
      Disp20                       -0.00760005 [mEh]      -0.00476910 [kcal/mol]      -0.01995393 [kJ/mol]
      Exch-Disp20                   0.00000004 [mEh]       0.00000003 [kcal/mol]       0.00000011 [kJ/mol]
      Disp20 (SS)                  -0.00380002 [mEh]      -0.00238455 [kcal/mol]      -0.00997696 [kJ/mol]
      Disp20 (OS)                  -0.00380002 [mEh]      -0.00238455 [kcal/mol]      -0.00997696 [kJ/mol]
      Exch-Disp20 (SS)              0.00000004 [mEh]       0.00000002 [kcal/mol]       0.00000010 [kJ/mol]
      Exch-Disp20 (OS)              0.00000001 [mEh]       0.00000000 [kcal/mol]       0.00000002 [kJ/mol]

  Total HF                         -0.11339784 [mEh]      -0.07115822 [kcal/mol]      -0.29772600 [kJ/mol]
  Total SAPT0                      -0.12099785 [mEh]      -0.07592730 [kcal/mol]      -0.31767981 [kJ/mol]

  Special recipe for scaled SAPT0 (see Manual):
    Electrostatics sSAPT0          -0.11259089 [mEh]      -0.07065185 [kcal/mol]      -0.29560734 [kJ/mol]
    Exchange sSAPT0                -0.00000006 [mEh]      -0.00000004 [kcal/mol]      -0.00000016 [kJ/mol]
    Induction sSAPT0               -0.00080689 [mEh]      -0.00050633 [kcal/mol]      -0.00211850 [kJ/mol]
    Dispersion sSAPT0              -0.00760001 [mEh]      -0.00476908 [kcal/mol]      -0.01995381 [kJ/mol]
  Total sSAPT0                     -0.12099785 [mEh]      -0.07592730 [kcal/mol]      -0.31767981 [kJ/mol]
  --------------------------------------------------------------------------------------------------------

*** Psi4 exiting successfully. Buy a developer a beer!
