                               Psi4 1.4rc3

  ==> Input File <==

--------------------------------------------------------------------------
# PSI4 file produced by CrystaLattE

# Generated from:               acetic_acid.xyz
# Psithon input for N-mer:      2mer-0+81
# Number of atoms per monomer:  [8, 8]
# Number of replicas:           2
# COM priority:                 1.051205459869e-04
# Minimum COM separations:      11.213
# Separation priority:          2.489458821281e-04
# Minimum monomer separations:  8.412
# Cutoff priority:              1.566053505034e-05
# Nuclear repulsion energy:     291.7785358064171

memory 7 GB

molecule Dimer_0_81 {
  O           -5.53102237       2.93940290       1.97762624
  O           -2.40708886       0.90817734       0.04905909
  H           -0.50304887       1.37579205       4.63880908
  H            0.00000000       4.25104285       3.09072238
  H           -2.38948215       4.01916779       5.40195041
  H           -3.74771411       0.47147930      -1.21557512
  C           -1.41859782       2.98500500       3.84405190
  C           -3.32263781       2.28628814       1.91221413
--
  O            7.19108365      20.40268695      -3.47338325
  O            4.06715015      22.43391252      -5.40195041
  H            2.16311016      21.96629780      -0.81220041
  H            1.66006128      19.09104700      -2.36028711
  H            4.04954344      19.32292206      -0.04905909
  H            5.40777540      22.87061056      -6.66658461
  C            3.07865911      20.35708485      -1.60695760
  C            4.98269910      21.05580172      -3.53879536
units = au
no_com
no_reorient
}

set {
  e_convergence 10
  d_convergence 10
  scf_type df
  mp2_type df
  cc_type df
  freeze_core true
}

energy('sapt0/aug-cc-pvdz')

--------------------------------------------------------------------------

  //              Dimer HF             //
    Molecular point group: c1
  Charge       = 0
  Multiplicity = 1
  Basis Set: AUG-CC-PVDZ
    Blend: AUG-CC-PVDZ
  Basis Set: (AUG-CC-PVDZ AUX)
    Blend: AUG-CC-PVDZ-JKFIT
  @DF-RHF Final Energy:  -455.68824474876124
    Total Energy =                       -455.6882447487612353
  //            Monomer A HF           //
    Molecular point group: c1
  Multiplicity = 1
  Basis Set: AUG-CC-PVDZ
    Blend: AUG-CC-PVDZ
  Basis Set: (AUG-CC-PVDZ AUX)
    Blend: AUG-CC-PVDZ-JKFIT
  @DF-RHF Final Energy:  -227.84408647142325
    Total Energy =                       -227.8440864714232532
  //            Monomer B HF           //
    Molecular point group: c1

    Geometry (in Bohr), charge = 0, multiplicity = 1:

       Center              X                  Y                   Z               Mass
    ------------   -----------------  -----------------  -----------------  -----------------
      Gh(O)          -5.531022370000     2.939402900000     1.977626240000    15.994914619570
      Gh(O)          -2.407088860000     0.908177340000     0.049059090000    15.994914619570
      Gh(H)          -0.503048870000     1.375792050000     4.638809080000     1.007825032230
      Gh(H)           0.000000000000     4.251042850000     3.090722380000     1.007825032230
      Gh(H)          -2.389482150000     4.019167790000     5.401950410000     1.007825032230
      Gh(H)          -3.747714110000     0.471479300000    -1.215575120000     1.007825032230
      Gh(C)          -1.418597820000     2.985005000000     3.844051900000    12.000000000000
      Gh(C)          -3.322637810000     2.286288140000     1.912214130000    12.000000000000
         O            7.191083650000    20.402686950000    -3.473383250000    15.994914619570
         O            4.067150150000    22.433912520000    -5.401950410000    15.994914619570
         H            2.163110160000    21.966297800000    -0.812200410000     1.007825032230
         H            1.660061280000    19.091047000000    -2.360287110000     1.007825032230
         H            4.049543440000    19.322922060000    -0.049059090000     1.007825032230
         H            5.407775400000    22.870610560000    -6.666584610000     1.007825032230
         C            3.078659110000    20.357084850000    -1.606957600000    12.000000000000
         C            4.982699100000    21.055801720000    -3.538795360000    12.000000000000

  Charge       = 0
  Multiplicity = 1
  Basis Set: AUG-CC-PVDZ
    Blend: AUG-CC-PVDZ
  Basis Set: (AUG-CC-PVDZ AUX)
    Blend: AUG-CC-PVDZ-JKFIT

    Orbital Energies [Eh]
    ---------------------

    Doubly Occupied:

       1A    -20.629476     2A    -20.552804     3A    -11.396108
       4A    -11.250979     5A     -1.475853     6A     -1.357486
       7A     -1.033000     8A     -0.837930     9A     -0.703065
      10A     -0.688465    11A     -0.657749    12A     -0.576538
      13A     -0.569697    14A     -0.561403    15A     -0.475343
      16A     -0.452434

  @DF-RHF Final Energy:  -227.84408635426047

   => Energetics <=

    Nuclear Repulsion Energy =            121.7484302460967314
    One-Electron Energy =                -552.7483699743158923
    Two-Electron Energy =                 203.1558533739586778
    Total Energy =                       -227.8440863542604689

  Dipole Moment: [D]
     X:    -2.1047      Y:     0.7191      Z:    -0.2116     Total:     2.2342

    SAPT Results
  --------------------------------------------------------------------------------------------------------
    Electrostatics                 -0.07138293 [mEh]      -0.04479346 [kcal/mol]      -0.18741584 [kJ/mol]
      Elst10,r                     -0.07138293 [mEh]      -0.04479346 [kcal/mol]      -0.18741584 [kJ/mol]

    Exchange                        0.00000016 [mEh]       0.00000010 [kcal/mol]       0.00000043 [kJ/mol]
      Exch10                        0.00000016 [mEh]       0.00000010 [kcal/mol]       0.00000043 [kJ/mol]
      Exch10(S^2)                   0.00000016 [mEh]       0.00000010 [kcal/mol]       0.00000043 [kJ/mol]

    Induction                      -0.00054032 [mEh]      -0.00033905 [kcal/mol]      -0.00141860 [kJ/mol]
      Ind20,r                      -0.00043567 [mEh]      -0.00027339 [kcal/mol]      -0.00114385 [kJ/mol]
      Exch-Ind20,r                  0.00000066 [mEh]       0.00000042 [kcal/mol]       0.00000174 [kJ/mol]
      delta HF,r (2)               -0.00010531 [mEh]      -0.00006608 [kcal/mol]      -0.00027649 [kJ/mol]

    Dispersion                     -0.00760935 [mEh]      -0.00477494 [kcal/mol]      -0.01997835 [kJ/mol]
      Disp20                       -0.00760942 [mEh]      -0.00477498 [kcal/mol]      -0.01997853 [kJ/mol]
      Exch-Disp20                   0.00000007 [mEh]       0.00000004 [kcal/mol]       0.00000018 [kJ/mol]
      Disp20 (SS)                  -0.00380471 [mEh]      -0.00238749 [kcal/mol]      -0.00998927 [kJ/mol]
      Disp20 (OS)                  -0.00380471 [mEh]      -0.00238749 [kcal/mol]      -0.00998927 [kJ/mol]
      Exch-Disp20 (SS)              0.00000006 [mEh]       0.00000004 [kcal/mol]       0.00000015 [kJ/mol]
      Exch-Disp20 (OS)              0.00000001 [mEh]       0.00000001 [kcal/mol]       0.00000003 [kJ/mol]

  Total HF                         -0.07192308 [mEh]      -0.04513241 [kcal/mol]      -0.18883401 [kJ/mol]
  Total SAPT0                      -0.07953243 [mEh]      -0.04990735 [kcal/mol]      -0.20881236 [kJ/mol]

  Special recipe for scaled SAPT0 (see Manual):
    Electrostatics sSAPT0          -0.07138293 [mEh]      -0.04479346 [kcal/mol]      -0.18741584 [kJ/mol]
    Exchange sSAPT0                 0.00000016 [mEh]       0.00000010 [kcal/mol]       0.00000043 [kJ/mol]
    Induction sSAPT0               -0.00054032 [mEh]      -0.00033905 [kcal/mol]      -0.00141860 [kJ/mol]
    Dispersion sSAPT0              -0.00760935 [mEh]      -0.00477494 [kcal/mol]      -0.01997835 [kJ/mol]
  Total sSAPT0                     -0.07953243 [mEh]      -0.04990735 [kcal/mol]      -0.20881236 [kJ/mol]
  --------------------------------------------------------------------------------------------------------

*** Psi4 exiting successfully. Buy a developer a beer!
