                               Psi4 1.4rc3

  ==> Input File <==

--------------------------------------------------------------------------
# PSI4 file produced by CrystaLattE

# Generated from:               acetic_acid.xyz
# Psithon input for N-mer:      2mer-0+320
# Number of atoms per monomer:  [8, 8]
# Number of replicas:           2
# COM priority:                 2.950293828889e-05
# Minimum COM separations:      17.126
# Separation priority:          4.508245716494e-05
# Minimum monomer separations:  14.868
# Cutoff priority:              1.604513731977e-06
# Nuclear repulsion energy:     275.0249858655062

memory 7 GB

molecule Dimer_0_320 {
  O           -5.53102237       2.93940290       1.97762624
  O           -2.40708886       0.90817734       0.04905909
  H           -0.50304887       1.37579205       4.63880908
  H            0.00000000       4.25104285       3.09072238
  H           -2.38948215       4.01916779       5.40195041
  H           -3.74771411       0.47147930      -1.21557512
  C           -1.41859782       2.98500500       3.84405190
  C           -3.32263781       2.28628814       1.91221413
--
  O          -30.53758190      -8.65435033      -3.47338325
  O          -33.66151541     -10.68557590      -5.40195041
  H          -35.56555540     -10.21796119      -0.81220041
  H          -36.06860427      -7.34271038      -2.36028711
  H          -33.67912212      -7.57458545      -0.04905909
  H          -32.32089016     -11.12227394      -6.66658461
  C          -34.65000644      -8.60874824      -1.60695760
  C          -32.74596646      -9.30746510      -3.53879536
units = au
no_com
no_reorient
}

set {
  e_convergence 10
  d_convergence 10
  scf_type df
  mp2_type df
  cc_type df
  freeze_core true
}

energy('sapt0/aug-cc-pvdz')

--------------------------------------------------------------------------

  //              Dimer HF             //
    Molecular point group: c1
  Charge       = 0
  Multiplicity = 1
  Basis Set: AUG-CC-PVDZ
    Blend: AUG-CC-PVDZ
  Basis Set: (AUG-CC-PVDZ AUX)
    Blend: AUG-CC-PVDZ-JKFIT
  @DF-RHF Final Energy:  -455.68812547152794
    Total Energy =                       -455.6881254715279397
  //            Monomer A HF           //
    Molecular point group: c1
  Multiplicity = 1
  Basis Set: AUG-CC-PVDZ
    Blend: AUG-CC-PVDZ
  Basis Set: (AUG-CC-PVDZ AUX)
    Blend: AUG-CC-PVDZ-JKFIT
  @DF-RHF Final Energy:  -227.84408589713593
    Total Energy =                       -227.8440858971359262
  //            Monomer B HF           //
    Molecular point group: c1

    Geometry (in Bohr), charge = 0, multiplicity = 1:

       Center              X                  Y                   Z               Mass
    ------------   -----------------  -----------------  -----------------  -----------------
      Gh(O)          -5.531022370000     2.939402900000     1.977626240000    15.994914619570
      Gh(O)          -2.407088860000     0.908177340000     0.049059090000    15.994914619570
      Gh(H)          -0.503048870000     1.375792050000     4.638809080000     1.007825032230
      Gh(H)           0.000000000000     4.251042850000     3.090722380000     1.007825032230
      Gh(H)          -2.389482150000     4.019167790000     5.401950410000     1.007825032230
      Gh(H)          -3.747714110000     0.471479300000    -1.215575120000     1.007825032230
      Gh(C)          -1.418597820000     2.985005000000     3.844051900000    12.000000000000
      Gh(C)          -3.322637810000     2.286288140000     1.912214130000    12.000000000000
         O          -30.537581900000    -8.654350330000    -3.473383250000    15.994914619570
         O          -33.661515410000   -10.685575900000    -5.401950410000    15.994914619570
         H          -35.565555400000   -10.217961190000    -0.812200410000     1.007825032230
         H          -36.068604270000    -7.342710380000    -2.360287110000     1.007825032230
         H          -33.679122120000    -7.574585450000    -0.049059090000     1.007825032230
         H          -32.320890160000   -11.122273940000    -6.666584610000     1.007825032230
         C          -34.650006440000    -8.608748240000    -1.606957600000    12.000000000000
         C          -32.745966460000    -9.307465100000    -3.538795360000    12.000000000000

  Charge       = 0
  Multiplicity = 1
  Basis Set: AUG-CC-PVDZ
    Blend: AUG-CC-PVDZ
  Basis Set: (AUG-CC-PVDZ AUX)
    Blend: AUG-CC-PVDZ-JKFIT

    Orbital Energies [Eh]
    ---------------------

    Doubly Occupied:

       1A    -20.629476     2A    -20.552804     3A    -11.396108
       4A    -11.250979     5A     -1.475853     6A     -1.357486
       7A     -1.032999     8A     -0.837930     9A     -0.703065
      10A     -0.688465    11A     -0.657749    12A     -0.576538
      13A     -0.569697    14A     -0.561403    15A     -0.475343
      16A     -0.452434

  @DF-RHF Final Energy:  -227.84408589642081

   => Energetics <=

    Nuclear Repulsion Energy =            121.7484301849619612
    One-Electron Energy =                -552.7483713899218856
    Two-Electron Energy =                 203.1558553085390884
    Total Energy =                       -227.8440858964208076

  Dipole Moment: [D]
     X:    -2.1048      Y:    -0.7191      Z:    -0.2116     Total:     2.2342

    SAPT Results
  --------------------------------------------------------------------------------------------------------
    Electrostatics                  0.04644681 [mEh]       0.02914581 [kcal/mol]       0.12194607 [kJ/mol]
      Elst10,r                      0.04644681 [mEh]       0.02914581 [kcal/mol]       0.12194607 [kJ/mol]

    Exchange                       -0.00000000 [mEh]      -0.00000000 [kcal/mol]      -0.00000000 [kJ/mol]
      Exch10                       -0.00000000 [mEh]      -0.00000000 [kcal/mol]      -0.00000000 [kJ/mol]
      Exch10(S^2)                  -0.00000000 [mEh]      -0.00000000 [kcal/mol]      -0.00000000 [kJ/mol]

    Induction                      -0.00012478 [mEh]      -0.00007830 [kcal/mol]      -0.00032760 [kJ/mol]
      Ind20,r                      -0.00012094 [mEh]      -0.00007589 [kcal/mol]      -0.00031752 [kJ/mol]
      Exch-Ind20,r                  0.00000000 [mEh]       0.00000000 [kcal/mol]       0.00000000 [kJ/mol]
      delta HF,r (2)               -0.00000384 [mEh]      -0.00000241 [kcal/mol]      -0.00001009 [kJ/mol]

    Dispersion                     -0.00051725 [mEh]      -0.00032458 [kcal/mol]      -0.00135804 [kJ/mol]
      Disp20                       -0.00051725 [mEh]      -0.00032458 [kcal/mol]      -0.00135804 [kJ/mol]
      Exch-Disp20                   0.00000000 [mEh]       0.00000000 [kcal/mol]       0.00000000 [kJ/mol]
      Disp20 (SS)                  -0.00025863 [mEh]      -0.00016229 [kcal/mol]      -0.00067902 [kJ/mol]
      Disp20 (OS)                  -0.00025863 [mEh]      -0.00016229 [kcal/mol]      -0.00067902 [kJ/mol]
      Exch-Disp20 (SS)              0.00000000 [mEh]       0.00000000 [kcal/mol]       0.00000000 [kJ/mol]
      Exch-Disp20 (OS)              0.00000000 [mEh]       0.00000000 [kcal/mol]       0.00000000 [kJ/mol]

  Total HF                          0.04632203 [mEh]       0.02906751 [kcal/mol]       0.12161847 [kJ/mol]
  Total SAPT0                       0.04580478 [mEh]       0.02874293 [kcal/mol]       0.12026043 [kJ/mol]

  Special recipe for scaled SAPT0 (see Manual):
    Electrostatics sSAPT0           0.04644681 [mEh]       0.02914581 [kcal/mol]       0.12194607 [kJ/mol]
    Exchange sSAPT0                -0.00000000 [mEh]      -0.00000000 [kcal/mol]      -0.00000000 [kJ/mol]
    Induction sSAPT0               -0.00012478 [mEh]      -0.00007830 [kcal/mol]      -0.00032760 [kJ/mol]
    Dispersion sSAPT0              -0.00051725 [mEh]      -0.00032458 [kcal/mol]      -0.00135804 [kJ/mol]
  Total sSAPT0                      0.04580478 [mEh]       0.02874293 [kcal/mol]       0.12026043 [kJ/mol]
  --------------------------------------------------------------------------------------------------------

*** Psi4 exiting successfully. Buy a developer a beer!
