                               Psi4 1.4rc3

  ==> Input File <==

--------------------------------------------------------------------------
# PSI4 file produced by CrystaLattE

# Generated from:               acetic_acid.xyz
# Psithon input for N-mer:      2mer-0+228
# Number of atoms per monomer:  [8, 8]
# Number of replicas:           2
# COM priority:                 2.408302186871e-05
# Minimum COM separations:      18.324
# Separation priority:          4.528646760259e-05
# Minimum monomer separations:  14.846
# Cutoff priority:              1.614202177060e-06
# Nuclear repulsion energy:     273.09614659819914

memory 7 GB

molecule Dimer_0_228 {
  O           -5.53102237       2.93940290       1.97762624
  O           -2.40708886       0.90817734       0.04905909
  H           -0.50304887       1.37579205       4.63880908
  H            0.00000000       4.25104285       3.09072238
  H           -2.38948215       4.01916779       5.40195041
  H           -3.74771411       0.47147930      -1.21557512
  C           -1.41859782       2.98500500       3.84405190
  C           -3.32263781       2.28628814       1.91221413
--
  O            7.19108365     -18.24315718     -25.27742123
  O            4.06715015     -16.21193161     -27.20598839
  H            2.16311016     -16.67954633     -22.61623840
  H            1.66006128     -19.55479713     -24.16432509
  H            4.04954344     -19.32292206     -21.85309707
  H            5.40777540     -15.77523357     -28.47062259
  C            3.07865911     -18.28875928     -23.41099558
  C            4.98269910     -17.59004241     -25.34283335
units = au
no_com
no_reorient
}

set {
  e_convergence 10
  d_convergence 10
  scf_type df
  mp2_type df
  cc_type df
  freeze_core true
}

energy('sapt0/aug-cc-pvdz')

--------------------------------------------------------------------------

  //              Dimer HF             //
    Molecular point group: c1
  Charge       = 0
  Multiplicity = 1
  Basis Set: AUG-CC-PVDZ
    Blend: AUG-CC-PVDZ
  Basis Set: (AUG-CC-PVDZ AUX)
    Blend: AUG-CC-PVDZ-JKFIT
  @DF-RHF Final Energy:  -455.68816970299423
    Total Energy =                       -455.6881697029942302
  //            Monomer A HF           //
    Molecular point group: c1
  Multiplicity = 1
  Basis Set: AUG-CC-PVDZ
    Blend: AUG-CC-PVDZ
  Basis Set: (AUG-CC-PVDZ AUX)
    Blend: AUG-CC-PVDZ-JKFIT
  @DF-RHF Final Energy:  -227.84408589668786
    Total Energy =                       -227.8440858966878579
  //            Monomer B HF           //
    Molecular point group: c1

    Geometry (in Bohr), charge = 0, multiplicity = 1:

       Center              X                  Y                   Z               Mass
    ------------   -----------------  -----------------  -----------------  -----------------
      Gh(O)          -5.531022370000     2.939402900000     1.977626240000    15.994914619570
      Gh(O)          -2.407088860000     0.908177340000     0.049059090000    15.994914619570
      Gh(H)          -0.503048870000     1.375792050000     4.638809080000     1.007825032230
      Gh(H)           0.000000000000     4.251042850000     3.090722380000     1.007825032230
      Gh(H)          -2.389482150000     4.019167790000     5.401950410000     1.007825032230
      Gh(H)          -3.747714110000     0.471479300000    -1.215575120000     1.007825032230
      Gh(C)          -1.418597820000     2.985005000000     3.844051900000    12.000000000000
      Gh(C)          -3.322637810000     2.286288140000     1.912214130000    12.000000000000
         O            7.191083650000   -18.243157180000   -25.277421230000    15.994914619570
         O            4.067150150000   -16.211931610000   -27.205988390000    15.994914619570
         H            2.163110160000   -16.679546330000   -22.616238400000     1.007825032230
         H            1.660061280000   -19.554797130000   -24.164325090000     1.007825032230
         H            4.049543440000   -19.322922060000   -21.853097070000     1.007825032230
         H            5.407775400000   -15.775233570000   -28.470622590000     1.007825032230
         C            3.078659110000   -18.288759280000   -23.410995580000    12.000000000000
         C            4.982699100000   -17.590042410000   -25.342833350000    12.000000000000

  Charge       = 0
  Multiplicity = 1
  Basis Set: AUG-CC-PVDZ
    Blend: AUG-CC-PVDZ
  Basis Set: (AUG-CC-PVDZ AUX)
    Blend: AUG-CC-PVDZ-JKFIT

    Orbital Energies [Eh]
    ---------------------

    Doubly Occupied:

       1A    -20.629476     2A    -20.552804     3A    -11.396108
       4A    -11.250979     5A     -1.475853     6A     -1.357486
       7A     -1.032999     8A     -0.837930     9A     -0.703065
      10A     -0.688465    11A     -0.657749    12A     -0.576538
      13A     -0.569697    14A     -0.561403    15A     -0.475343
      16A     -0.452434

  @DF-RHF Final Energy:  -227.84408589401647

   => Energetics <=

    Nuclear Repulsion Energy =            121.7484302903039151
    One-Electron Energy =                -552.7483715779624163
    Two-Electron Energy =                 203.1558553936420140
    Total Energy =                       -227.8440858940164730

  Dipole Moment: [D]
     X:    -2.1048      Y:     0.7191      Z:    -0.2116     Total:     2.2342

    SAPT Results
  --------------------------------------------------------------------------------------------------------
    Electrostatics                  0.00212515 [mEh]       0.00133355 [kcal/mol]       0.00557958 [kJ/mol]
      Elst10,r                      0.00212515 [mEh]       0.00133355 [kcal/mol]       0.00557958 [kJ/mol]

    Exchange                       -0.00000000 [mEh]      -0.00000000 [kcal/mol]      -0.00000000 [kJ/mol]
      Exch10                       -0.00000000 [mEh]      -0.00000000 [kcal/mol]      -0.00000000 [kJ/mol]
      Exch10(S^2)                  -0.00000000 [mEh]      -0.00000000 [kcal/mol]      -0.00000000 [kJ/mol]

    Induction                      -0.00003744 [mEh]      -0.00002349 [kcal/mol]      -0.00009830 [kJ/mol]
      Ind20,r                      -0.00002035 [mEh]      -0.00001277 [kcal/mol]      -0.00005342 [kJ/mol]
      Exch-Ind20,r                  0.00000000 [mEh]       0.00000000 [kcal/mol]       0.00000000 [kJ/mol]
      delta HF,r (2)               -0.00001709 [mEh]      -0.00001073 [kcal/mol]      -0.00004488 [kJ/mol]

    Dispersion                     -0.00034406 [mEh]      -0.00021590 [kcal/mol]      -0.00090333 [kJ/mol]
      Disp20                       -0.00034406 [mEh]      -0.00021590 [kcal/mol]      -0.00090333 [kJ/mol]
      Exch-Disp20                   0.00000000 [mEh]       0.00000000 [kcal/mol]       0.00000000 [kJ/mol]
      Disp20 (SS)                  -0.00017203 [mEh]      -0.00010795 [kcal/mol]      -0.00045167 [kJ/mol]
      Disp20 (OS)                  -0.00017203 [mEh]      -0.00010795 [kcal/mol]      -0.00045167 [kJ/mol]
      Exch-Disp20 (SS)              0.00000000 [mEh]       0.00000000 [kcal/mol]       0.00000000 [kJ/mol]
      Exch-Disp20 (OS)              0.00000000 [mEh]       0.00000000 [kcal/mol]       0.00000000 [kJ/mol]

  Total HF                          0.00208771 [mEh]       0.00131006 [kcal/mol]       0.00548128 [kJ/mol]
  Total SAPT0                       0.00174365 [mEh]       0.00109416 [kcal/mol]       0.00457795 [kJ/mol]

  Special recipe for scaled SAPT0 (see Manual):
    Electrostatics sSAPT0           0.00212515 [mEh]       0.00133355 [kcal/mol]       0.00557958 [kJ/mol]
    Exchange sSAPT0                -0.00000000 [mEh]      -0.00000000 [kcal/mol]      -0.00000000 [kJ/mol]
    Induction sSAPT0               -0.00003744 [mEh]      -0.00002349 [kcal/mol]      -0.00009830 [kJ/mol]
    Dispersion sSAPT0              -0.00034406 [mEh]      -0.00021590 [kcal/mol]      -0.00090333 [kJ/mol]
  Total sSAPT0                      0.00174365 [mEh]       0.00109416 [kcal/mol]       0.00457795 [kJ/mol]
  --------------------------------------------------------------------------------------------------------

*** Psi4 exiting successfully. Buy a developer a beer!
