                               Psi4 1.4rc3

  ==> Input File <==

--------------------------------------------------------------------------
# PSI4 file produced by CrystaLattE

# Generated from:               acetic_acid.xyz
# Psithon input for N-mer:      2mer-0+69
# Number of atoms per monomer:  [8, 8]
# Number of replicas:           2
# COM priority:                 7.015114378002e-05
# Minimum COM separations:      12.831
# Separation priority:          1.845576411755e-04
# Minimum monomer separations:  9.294
# Cutoff priority:              1.050774136102e-05
# Nuclear repulsion energy:     285.97112537906554

memory 7 GB

molecule Dimer_0_69 {
  O           -5.53102237       2.93940290       1.97762624
  O           -2.40708886       0.90817734       0.04905909
  H           -0.50304887       1.37579205       4.63880908
  H            0.00000000       4.25104285       3.09072238
  H           -2.38948215       4.01916779       5.40195041
  H           -3.74771411       0.47147930      -1.21557512
  C           -1.41859782       2.98500500       3.84405190
  C           -3.32263781       2.28628814       1.91221413
--
  O           19.76730551      -8.65435033       7.42863574
  O           16.64337200     -10.68557590       5.50006858
  H           14.73933201     -10.21796119      10.08981858
  H           14.23628314      -7.34271038       8.54173188
  H           16.62576529      -7.57458545      10.85295990
  H           17.98399725     -11.12227394       4.23543438
  C           15.65488096      -8.60874824       9.29506139
  C           17.55892095      -9.30746510       7.36322363
units = au
no_com
no_reorient
}

set {
  e_convergence 10
  d_convergence 10
  scf_type df
  mp2_type df
  cc_type df
  freeze_core true
}

energy('sapt0/aug-cc-pvdz')

--------------------------------------------------------------------------

  //              Dimer HF             //
    Molecular point group: c1
  Charge       = 0
  Multiplicity = 1
  Basis Set: AUG-CC-PVDZ
    Blend: AUG-CC-PVDZ
  Basis Set: (AUG-CC-PVDZ AUX)
    Blend: AUG-CC-PVDZ-JKFIT
  @DF-RHF Final Energy:  -455.68813242009600
    Total Energy =                       -455.6881324200959966
  //            Monomer A HF           //
    Molecular point group: c1
  Multiplicity = 1
  Basis Set: AUG-CC-PVDZ
    Blend: AUG-CC-PVDZ
  Basis Set: (AUG-CC-PVDZ AUX)
    Blend: AUG-CC-PVDZ-JKFIT
  @DF-RHF Final Energy:  -227.84408620905742
    Total Energy =                       -227.8440862090574228
  //            Monomer B HF           //
    Molecular point group: c1

    Geometry (in Bohr), charge = 0, multiplicity = 1:

       Center              X                  Y                   Z               Mass
    ------------   -----------------  -----------------  -----------------  -----------------
      Gh(O)          -5.531022370000     2.939402900000     1.977626240000    15.994914619570
      Gh(O)          -2.407088860000     0.908177340000     0.049059090000    15.994914619570
      Gh(H)          -0.503048870000     1.375792050000     4.638809080000     1.007825032230
      Gh(H)           0.000000000000     4.251042850000     3.090722380000     1.007825032230
      Gh(H)          -2.389482150000     4.019167790000     5.401950410000     1.007825032230
      Gh(H)          -3.747714110000     0.471479300000    -1.215575120000     1.007825032230
      Gh(C)          -1.418597820000     2.985005000000     3.844051900000    12.000000000000
      Gh(C)          -3.322637810000     2.286288140000     1.912214130000    12.000000000000
         O           19.767305510000    -8.654350330000     7.428635740000    15.994914619570
         O           16.643372000000   -10.685575900000     5.500068580000    15.994914619570
         H           14.739332010000   -10.217961190000    10.089818580000     1.007825032230
         H           14.236283140000    -7.342710380000     8.541731880000     1.007825032230
         H           16.625765290000    -7.574585450000    10.852959900000     1.007825032230
         H           17.983997250000   -11.122273940000     4.235434380000     1.007825032230
         C           15.654880960000    -8.608748240000     9.295061390000    12.000000000000
         C           17.558920950000    -9.307465100000     7.363223630000    12.000000000000

  Charge       = 0
  Multiplicity = 1
  Basis Set: AUG-CC-PVDZ
    Blend: AUG-CC-PVDZ
  Basis Set: (AUG-CC-PVDZ AUX)
    Blend: AUG-CC-PVDZ-JKFIT

    Orbital Energies [Eh]
    ---------------------

    Doubly Occupied:

       1A    -20.629476     2A    -20.552804     3A    -11.396108
       4A    -11.250978     5A     -1.475853     6A     -1.357486
       7A     -1.032999     8A     -0.837930     9A     -0.703065
      10A     -0.688465    11A     -0.657749    12A     -0.576538
      13A     -0.569697    14A     -0.561403    15A     -0.475343
      16A     -0.452434

  @DF-RHF Final Energy:  -227.84408616767621

   => Energetics <=

    Nuclear Repulsion Energy =            121.7484301367385484
    One-Electron Energy =                -552.7483721632952438
    Two-Electron Energy =                 203.1558558588804999
    Total Energy =                       -227.8440861676762097

  Dipole Moment: [D]
     X:    -2.1047      Y:    -0.7191      Z:    -0.2116     Total:     2.2342

    SAPT Results
  --------------------------------------------------------------------------------------------------------
    Electrostatics                  0.04027100 [mEh]       0.02527043 [kcal/mol]       0.10573149 [kJ/mol]
      Elst10,r                      0.04027100 [mEh]       0.02527043 [kcal/mol]       0.10573149 [kJ/mol]

    Exchange                        0.00000016 [mEh]       0.00000010 [kcal/mol]       0.00000042 [kJ/mol]
      Exch10                        0.00000016 [mEh]       0.00000010 [kcal/mol]       0.00000042 [kJ/mol]
      Exch10(S^2)                   0.00000016 [mEh]       0.00000010 [kcal/mol]       0.00000042 [kJ/mol]

    Induction                      -0.00031452 [mEh]      -0.00019737 [kcal/mol]      -0.00082578 [kJ/mol]
      Ind20,r                      -0.00023388 [mEh]      -0.00014676 [kcal/mol]      -0.00061406 [kJ/mol]
      Exch-Ind20,r                  0.00000044 [mEh]       0.00000027 [kcal/mol]       0.00000115 [kJ/mol]
      delta HF,r (2)               -0.00008107 [mEh]      -0.00005087 [kcal/mol]      -0.00021286 [kJ/mol]

    Dispersion                     -0.00372067 [mEh]      -0.00233475 [kcal/mol]      -0.00976861 [kJ/mol]
      Disp20                       -0.00372071 [mEh]      -0.00233478 [kcal/mol]      -0.00976872 [kJ/mol]
      Exch-Disp20                   0.00000004 [mEh]       0.00000002 [kcal/mol]       0.00000010 [kJ/mol]
      Disp20 (SS)                  -0.00186035 [mEh]      -0.00116739 [kcal/mol]      -0.00488436 [kJ/mol]
      Disp20 (OS)                  -0.00186035 [mEh]      -0.00116739 [kcal/mol]      -0.00488436 [kJ/mol]
      Exch-Disp20 (SS)              0.00000003 [mEh]       0.00000002 [kcal/mol]       0.00000009 [kJ/mol]
      Exch-Disp20 (OS)              0.00000001 [mEh]       0.00000000 [kcal/mol]       0.00000002 [kJ/mol]

  Total HF                          0.03995664 [mEh]       0.02507317 [kcal/mol]       0.10490614 [kJ/mol]
  Total SAPT0                       0.03623597 [mEh]       0.02273841 [kcal/mol]       0.09513752 [kJ/mol]

  Special recipe for scaled SAPT0 (see Manual):
    Electrostatics sSAPT0           0.04027100 [mEh]       0.02527043 [kcal/mol]       0.10573149 [kJ/mol]
    Exchange sSAPT0                 0.00000016 [mEh]       0.00000010 [kcal/mol]       0.00000042 [kJ/mol]
    Induction sSAPT0               -0.00031452 [mEh]      -0.00019737 [kcal/mol]      -0.00082578 [kJ/mol]
    Dispersion sSAPT0              -0.00372067 [mEh]      -0.00233475 [kcal/mol]      -0.00976861 [kJ/mol]
  Total sSAPT0                      0.03623597 [mEh]       0.02273841 [kcal/mol]       0.09513752 [kJ/mol]
  --------------------------------------------------------------------------------------------------------

*** Psi4 exiting successfully. Buy a developer a beer!
