                               Psi4 1.4rc3

  ==> Input File <==

--------------------------------------------------------------------------
# PSI4 file produced by CrystaLattE

# Generated from:               acetic_acid.xyz
# Psithon input for N-mer:      2mer-0+135
# Number of atoms per monomer:  [8, 8]
# Number of replicas:           2
# COM priority:                 3.886153598212e-05
# Minimum COM separations:      15.623
# Separation priority:          6.717638189327e-05
# Minimum monomer separations:  13.018
# Cutoff priority:              2.730793196379e-06
# Nuclear repulsion energy:     278.22359204448367

memory 7 GB

molecule Dimer_0_135 {
  O           -5.53102237       2.93940290       1.97762624
  O           -2.40708886       0.90817734       0.04905909
  H           -0.50304887       1.37579205       4.63880908
  H            0.00000000       4.25104285       3.09072238
  H           -2.38948215       4.01916779       5.40195041
  H           -3.74771411       0.47147930      -1.21557512
  C           -1.41859782       2.98500500       3.84405190
  C           -3.32263781       2.28628814       1.91221413
--
  O           19.62142133     -12.51893475       1.97762624
  O           22.74535484     -14.55016031       0.04905909
  H           24.64939483     -14.08254560       4.63880908
  H           25.15244370     -11.20729480       3.09072238
  H           22.76296155     -11.43916986       5.40195041
  H           21.40472959     -14.98685835      -1.21557512
  C           23.73384588     -12.47333265       3.84405190
  C           21.82980589     -13.17204951       1.91221413
units = au
no_com
no_reorient
}

set {
  e_convergence 10
  d_convergence 10
  scf_type df
  mp2_type df
  cc_type df
  freeze_core true
}

energy('sapt0/aug-cc-pvdz')

--------------------------------------------------------------------------

  //              Dimer HF             //
    Molecular point group: c1
  Charge       = 0
  Multiplicity = 1
  Basis Set: AUG-CC-PVDZ
    Blend: AUG-CC-PVDZ
  Basis Set: (AUG-CC-PVDZ AUX)
    Blend: AUG-CC-PVDZ-JKFIT
  @DF-RHF Final Energy:  -455.68821818303479
    Total Energy =                       -455.6882181830347918
  //            Monomer A HF           //
    Molecular point group: c1
  Multiplicity = 1
  Basis Set: AUG-CC-PVDZ
    Blend: AUG-CC-PVDZ
  Basis Set: (AUG-CC-PVDZ AUX)
    Blend: AUG-CC-PVDZ-JKFIT
  @DF-RHF Final Energy:  -227.84408589333879
    Total Energy =                       -227.8440858933387858
  //            Monomer B HF           //
    Molecular point group: c1

    Geometry (in Bohr), charge = 0, multiplicity = 1:

       Center              X                  Y                   Z               Mass
    ------------   -----------------  -----------------  -----------------  -----------------
      Gh(O)          -5.531022370000     2.939402900000     1.977626240000    15.994914619570
      Gh(O)          -2.407088860000     0.908177340000     0.049059090000    15.994914619570
      Gh(H)          -0.503048870000     1.375792050000     4.638809080000     1.007825032230
      Gh(H)           0.000000000000     4.251042850000     3.090722380000     1.007825032230
      Gh(H)          -2.389482150000     4.019167790000     5.401950410000     1.007825032230
      Gh(H)          -3.747714110000     0.471479300000    -1.215575120000     1.007825032230
      Gh(C)          -1.418597820000     2.985005000000     3.844051900000    12.000000000000
      Gh(C)          -3.322637810000     2.286288140000     1.912214130000    12.000000000000
         O           19.621421330000   -12.518934750000     1.977626240000    15.994914619570
         O           22.745354840000   -14.550160310000     0.049059090000    15.994914619570
         H           24.649394830000   -14.082545600000     4.638809080000     1.007825032230
         H           25.152443700000   -11.207294800000     3.090722380000     1.007825032230
         H           22.762961550000   -11.439169860000     5.401950410000     1.007825032230
         H           21.404729590000   -14.986858350000    -1.215575120000     1.007825032230
         C           23.733845880000   -12.473332650000     3.844051900000    12.000000000000
         C           21.829805890000   -13.172049510000     1.912214130000    12.000000000000

  Charge       = 0
  Multiplicity = 1
  Basis Set: AUG-CC-PVDZ
    Blend: AUG-CC-PVDZ
  Basis Set: (AUG-CC-PVDZ AUX)
    Blend: AUG-CC-PVDZ-JKFIT

    Orbital Energies [Eh]
    ---------------------

    Doubly Occupied:

       1A    -20.629476     2A    -20.552804     3A    -11.396108
       4A    -11.250979     5A     -1.475853     6A     -1.357486
       7A     -1.032999     8A     -0.837930     9A     -0.703065
      10A     -0.688465    11A     -0.657749    12A     -0.576538
      13A     -0.569697    14A     -0.561403    15A     -0.475343
      16A     -0.452434

  @DF-RHF Final Energy:  -227.84408589624945

   => Energetics <=

    Nuclear Repulsion Energy =            121.7484302109716197
    One-Electron Energy =                -552.7483714398638313
    Two-Electron Energy =                 203.1558553326427727
    Total Energy =                       -227.8440858962494531

  Dipole Moment: [D]
     X:     2.1048      Y:    -0.7191      Z:    -0.2116     Total:     2.2342

    SAPT Results
  --------------------------------------------------------------------------------------------------------
    Electrostatics                 -0.04619191 [mEh]      -0.02898586 [kcal/mol]      -0.12127684 [kJ/mol]
      Elst10,r                     -0.04619191 [mEh]      -0.02898586 [kcal/mol]      -0.12127684 [kJ/mol]

    Exchange                       -0.00000000 [mEh]      -0.00000000 [kcal/mol]      -0.00000000 [kJ/mol]
      Exch10                       -0.00000000 [mEh]      -0.00000000 [kcal/mol]      -0.00000000 [kJ/mol]
      Exch10(S^2)                  -0.00000000 [mEh]      -0.00000000 [kcal/mol]      -0.00000000 [kJ/mol]

    Induction                      -0.00020154 [mEh]      -0.00012647 [kcal/mol]      -0.00052914 [kJ/mol]
      Ind20,r                      -0.00018161 [mEh]      -0.00011396 [kcal/mol]      -0.00047681 [kJ/mol]
      Exch-Ind20,r                  0.00000000 [mEh]       0.00000000 [kcal/mol]       0.00000000 [kJ/mol]
      delta HF,r (2)               -0.00001993 [mEh]      -0.00001251 [kcal/mol]      -0.00005233 [kJ/mol]

    Dispersion                     -0.00100266 [mEh]      -0.00062918 [kcal/mol]      -0.00263248 [kJ/mol]
      Disp20                       -0.00100266 [mEh]      -0.00062918 [kcal/mol]      -0.00263248 [kJ/mol]
      Exch-Disp20                   0.00000000 [mEh]       0.00000000 [kcal/mol]       0.00000000 [kJ/mol]
      Disp20 (SS)                  -0.00050133 [mEh]      -0.00031459 [kcal/mol]      -0.00131624 [kJ/mol]
      Disp20 (OS)                  -0.00050133 [mEh]      -0.00031459 [kcal/mol]      -0.00131624 [kJ/mol]
      Exch-Disp20 (SS)              0.00000000 [mEh]       0.00000000 [kcal/mol]       0.00000000 [kJ/mol]
      Exch-Disp20 (OS)              0.00000000 [mEh]       0.00000000 [kcal/mol]       0.00000000 [kJ/mol]

  Total HF                         -0.04639345 [mEh]      -0.02911233 [kcal/mol]      -0.12180598 [kJ/mol]
  Total SAPT0                      -0.04739611 [mEh]      -0.02974150 [kcal/mol]      -0.12443846 [kJ/mol]

  Special recipe for scaled SAPT0 (see Manual):
    Electrostatics sSAPT0          -0.04619191 [mEh]      -0.02898586 [kcal/mol]      -0.12127684 [kJ/mol]
    Exchange sSAPT0                -0.00000000 [mEh]      -0.00000000 [kcal/mol]      -0.00000000 [kJ/mol]
    Induction sSAPT0               -0.00020154 [mEh]      -0.00012647 [kcal/mol]      -0.00052914 [kJ/mol]
    Dispersion sSAPT0              -0.00100266 [mEh]      -0.00062918 [kcal/mol]      -0.00263248 [kJ/mol]
  Total sSAPT0                     -0.04739611 [mEh]      -0.02974150 [kcal/mol]      -0.12443846 [kJ/mol]
  --------------------------------------------------------------------------------------------------------

*** Psi4 exiting successfully. Buy a developer a beer!
