                               Psi4 1.4rc3

  ==> Input File <==

--------------------------------------------------------------------------
# PSI4 file produced by CrystaLattE

# Generated from:               acetic_acid.xyz
# Psithon input for N-mer:      2mer-0+4
# Number of atoms per monomer:  [8, 8]
# Number of replicas:           2
# COM priority:                 7.717545478662e-04
# Minimum COM separations:      5.769
# Separation priority:          5.326379936445e-03
# Minimum monomer separations:  3.030
# Cutoff priority:              9.301996873495e-04
# Nuclear repulsion energy:     338.27352948304065

memory 7 GB

molecule Dimer_0_4 {
  O           -5.53102237       2.93940290       1.97762624
  O           -2.40708886       0.90817734       0.04905909
  H           -0.50304887       1.37579205       4.63880908
  H            0.00000000       4.25104285       3.09072238
  H           -2.38948215       4.01916779       5.40195041
  H           -3.74771411       0.47147930      -1.21557512
  C           -1.41859782       2.98500500       3.84405190
  C           -3.32263781       2.28628814       1.91221413
--
  O           -5.53102237       2.93940290      -8.92439275
  O           -2.40708886       0.90817734     -10.85295990
  H           -0.50304887       1.37579205      -6.26320991
  H            0.00000000       4.25104285      -7.81129661
  H           -2.38948215       4.01916779      -5.50006858
  H           -3.74771411       0.47147930     -12.11759411
  C           -1.41859782       2.98500500      -7.05796709
  C           -3.32263781       2.28628814      -8.98980486
units = au
no_com
no_reorient
}

set {
  e_convergence 10
  d_convergence 10
  scf_type df
  mp2_type df
  cc_type df
  freeze_core true
}

energy('sapt0/aug-cc-pvdz')

--------------------------------------------------------------------------

  //              Dimer HF             //
    Molecular point group: c1
  Charge       = 0
  Multiplicity = 1
  Basis Set: AUG-CC-PVDZ
    Blend: AUG-CC-PVDZ
  Basis Set: (AUG-CC-PVDZ AUX)
    Blend: AUG-CC-PVDZ-JKFIT
  @DF-RHF Final Energy:  -455.68778516742157
    Total Energy =                       -455.6877851674215663
  //            Monomer A HF           //
    Molecular point group: c1
  Multiplicity = 1
  Basis Set: AUG-CC-PVDZ
    Blend: AUG-CC-PVDZ
  Basis Set: (AUG-CC-PVDZ AUX)
    Blend: AUG-CC-PVDZ-JKFIT
  @DF-RHF Final Energy:  -227.84421571117085
    Total Energy =                       -227.8442157111708468
  //            Monomer B HF           //
    Molecular point group: c1

    Geometry (in Bohr), charge = 0, multiplicity = 1:

       Center              X                  Y                   Z               Mass
    ------------   -----------------  -----------------  -----------------  -----------------
      Gh(O)          -5.531022370000     2.939402900000     1.977626240000    15.994914619570
      Gh(O)          -2.407088860000     0.908177340000     0.049059090000    15.994914619570
      Gh(H)          -0.503048870000     1.375792050000     4.638809080000     1.007825032230
      Gh(H)           0.000000000000     4.251042850000     3.090722380000     1.007825032230
      Gh(H)          -2.389482150000     4.019167790000     5.401950410000     1.007825032230
      Gh(H)          -3.747714110000     0.471479300000    -1.215575120000     1.007825032230
      Gh(C)          -1.418597820000     2.985005000000     3.844051900000    12.000000000000
      Gh(C)          -3.322637810000     2.286288140000     1.912214130000    12.000000000000
         O           -5.531022370000     2.939402900000    -8.924392750000    15.994914619570
         O           -2.407088860000     0.908177340000   -10.852959900000    15.994914619570
         H           -0.503048870000     1.375792050000    -6.263209910000     1.007825032230
         H            0.000000000000     4.251042850000    -7.811296610000     1.007825032230
         H           -2.389482150000     4.019167790000    -5.500068580000     1.007825032230
         H           -3.747714110000     0.471479300000   -12.117594110000     1.007825032230
         C           -1.418597820000     2.985005000000    -7.057967090000    12.000000000000
         C           -3.322637810000     2.286288140000    -8.989804860000    12.000000000000

  Charge       = 0
  Multiplicity = 1
  Basis Set: AUG-CC-PVDZ
    Blend: AUG-CC-PVDZ
  Basis Set: (AUG-CC-PVDZ AUX)
    Blend: AUG-CC-PVDZ-JKFIT

    Orbital Energies [Eh]
    ---------------------

    Doubly Occupied:

       1A    -20.629481     2A    -20.552835     3A    -11.396091
       4A    -11.250915     5A     -1.475843     6A     -1.357471
       7A     -1.032992     8A     -0.837926     9A     -0.703054
      10A     -0.688452    11A     -0.657741    12A     -0.576528
      13A     -0.569692    14A     -0.561395    15A     -0.475332
      16A     -0.452434

  @DF-RHF Final Energy:  -227.84418314220963

   => Energetics <=

    Nuclear Repulsion Energy =            121.7484302109716339
    One-Electron Energy =                -552.7488620718891070
    Two-Electron Energy =                 203.1562487187078716
    Total Energy =                       -227.8441831422096300

  Dipole Moment: [D]
     X:     2.1036      Y:    -0.7188      Z:    -0.2122     Total:     2.2331

    SAPT Results
  --------------------------------------------------------------------------------------------------------
    Electrostatics                  0.40607613 [mEh]       0.25481662 [kcal/mol]       1.06615274 [kJ/mol]
      Elst10,r                      0.40607613 [mEh]       0.25481662 [kcal/mol]       1.06615274 [kJ/mol]

    Exchange                        0.28226374 [mEh]       0.17712317 [kcal/mol]       0.74108335 [kJ/mol]
      Exch10                        0.28226374 [mEh]       0.17712317 [kcal/mol]       0.74108335 [kJ/mol]
      Exch10(S^2)                   0.28218619 [mEh]       0.17707451 [kcal/mol]       0.74087975 [kJ/mol]

    Induction                      -0.07465391 [mEh]      -0.04684604 [kcal/mol]      -0.19600382 [kJ/mol]
      Ind20,r                      -0.10786021 [mEh]      -0.06768330 [kcal/mol]      -0.28318693 [kJ/mol]
      Exch-Ind20,r                  0.04371585 [mEh]       0.02743211 [kcal/mol]       0.11477595 [kJ/mol]
      delta HF,r (2)               -0.01050956 [mEh]      -0.00659485 [kcal/mol]      -0.02759284 [kJ/mol]

    Dispersion                     -0.87905978 [mEh]      -0.55161834 [kcal/mol]      -2.30797113 [kJ/mol]
      Disp20                       -0.90659807 [mEh]      -0.56889888 [kcal/mol]      -2.38027290 [kJ/mol]
      Exch-Disp20                   0.02753829 [mEh]       0.01728054 [kcal/mol]       0.07230176 [kJ/mol]
      Disp20 (SS)                  -0.45329903 [mEh]      -0.28444944 [kcal/mol]      -1.19013645 [kJ/mol]
      Disp20 (OS)                  -0.45329903 [mEh]      -0.28444944 [kcal/mol]      -1.19013645 [kJ/mol]
      Exch-Disp20 (SS)              0.01876221 [mEh]       0.01177347 [kcal/mol]       0.04926018 [kJ/mol]
      Exch-Disp20 (OS)              0.00877608 [mEh]       0.00550707 [kcal/mol]       0.02304159 [kJ/mol]

  Total HF                          0.61368596 [mEh]       0.38509375 [kcal/mol]       1.61123226 [kJ/mol]
  Total SAPT0                      -0.26537382 [mEh]      -0.16652459 [kcal/mol]      -0.69673887 [kJ/mol]

  Special recipe for scaled SAPT0 (see Manual):
    Electrostatics sSAPT0           0.40607613 [mEh]       0.25481662 [kcal/mol]       1.06615274 [kJ/mol]
    Exchange sSAPT0                 0.28226374 [mEh]       0.17712317 [kcal/mol]       0.74108335 [kJ/mol]
    Induction sSAPT0               -0.07461786 [mEh]      -0.04682342 [kcal/mol]      -0.19590918 [kJ/mol]
    Dispersion sSAPT0              -0.87903707 [mEh]      -0.55160409 [kcal/mol]      -2.30791151 [kJ/mol]
  Total sSAPT0                     -0.26531506 [mEh]      -0.16648771 [kcal/mol]      -0.69658460 [kJ/mol]
  --------------------------------------------------------------------------------------------------------

*** Psi4 exiting successfully. Buy a developer a beer!
