                               Psi4 1.4rc3

  ==> Input File <==

--------------------------------------------------------------------------
# PSI4 file produced by CrystaLattE

# Generated from:               acetic_acid.xyz
# Psithon input for N-mer:      2mer-0+20
# Number of atoms per monomer:  [8, 8]
# Number of replicas:           2
# COM priority:                 2.166230920967e-04
# Minimum COM separations:      8.811
# Separation priority:          4.515620813833e-04
# Minimum monomer separations:  6.898
# Cutoff priority:              3.464362175228e-05
# Nuclear repulsion energy:     304.8838818639136

memory 7 GB

molecule Dimer_0_20 {
  O           -5.53102237       2.93940290       1.97762624
  O           -2.40708886       0.90817734       0.04905909
  H           -0.50304887       1.37579205       4.63880908
  H            0.00000000       4.25104285       3.09072238
  H           -2.38948215       4.01916779       5.40195041
  H           -3.74771411       0.47147930      -1.21557512
  C           -1.41859782       2.98500500       3.84405190
  C           -3.32263781       2.28628814       1.91221413
--
  O            7.04519948       1.07976488      -8.92439275
  O           10.16913299       3.11099045     -10.85295990
  H           12.07317298       2.64337574      -6.26320991
  H           12.57622185      -0.23187506      -7.81129661
  H           10.18673970       0.00000000      -5.50006858
  H            8.82850774       3.54768849     -12.11759411
  C           11.15762403       1.03416279      -7.05796709
  C            9.25358404       1.73287965      -8.98980486
units = au
no_com
no_reorient
}

set {
  e_convergence 10
  d_convergence 10
  scf_type df
  mp2_type df
  cc_type df
  freeze_core true
}

energy('sapt0/aug-cc-pvdz')

--------------------------------------------------------------------------

  //              Dimer HF             //
    Molecular point group: c1
  Charge       = 0
  Multiplicity = 1
  Basis Set: AUG-CC-PVDZ
    Blend: AUG-CC-PVDZ
  Basis Set: (AUG-CC-PVDZ AUX)
    Blend: AUG-CC-PVDZ-JKFIT
  @DF-RHF Final Energy:  -455.68825883359443
    Total Energy =                       -455.6882588335944320
  //            Monomer A HF           //
    Molecular point group: c1
  Multiplicity = 1
  Basis Set: AUG-CC-PVDZ
    Blend: AUG-CC-PVDZ
  Basis Set: (AUG-CC-PVDZ AUX)
    Blend: AUG-CC-PVDZ-JKFIT
  @DF-RHF Final Energy:  -227.84409014980764
    Total Energy =                       -227.8440901498076414
  //            Monomer B HF           //
    Molecular point group: c1

    Geometry (in Bohr), charge = 0, multiplicity = 1:

       Center              X                  Y                   Z               Mass
    ------------   -----------------  -----------------  -----------------  -----------------
      Gh(O)          -5.531022370000     2.939402900000     1.977626240000    15.994914619570
      Gh(O)          -2.407088860000     0.908177340000     0.049059090000    15.994914619570
      Gh(H)          -0.503048870000     1.375792050000     4.638809080000     1.007825032230
      Gh(H)           0.000000000000     4.251042850000     3.090722380000     1.007825032230
      Gh(H)          -2.389482150000     4.019167790000     5.401950410000     1.007825032230
      Gh(H)          -3.747714110000     0.471479300000    -1.215575120000     1.007825032230
      Gh(C)          -1.418597820000     2.985005000000     3.844051900000    12.000000000000
      Gh(C)          -3.322637810000     2.286288140000     1.912214130000    12.000000000000
         O            7.045199480000     1.079764880000    -8.924392750000    15.994914619570
         O           10.169132990000     3.110990450000   -10.852959900000    15.994914619570
         H           12.073172980000     2.643375740000    -6.263209910000     1.007825032230
         H           12.576221850000    -0.231875060000    -7.811296610000     1.007825032230
         H           10.186739700000     0.000000000000    -5.500068580000     1.007825032230
         H            8.828507740000     3.547688490000   -12.117594110000     1.007825032230
         C           11.157624030000     1.034162790000    -7.057967090000    12.000000000000
         C            9.253584040000     1.732879650000    -8.989804860000    12.000000000000

  Charge       = 0
  Multiplicity = 1
  Basis Set: AUG-CC-PVDZ
    Blend: AUG-CC-PVDZ
  Basis Set: (AUG-CC-PVDZ AUX)
    Blend: AUG-CC-PVDZ-JKFIT

    Orbital Energies [Eh]
    ---------------------

    Doubly Occupied:

       1A    -20.629476     2A    -20.552806     3A    -11.396107
       4A    -11.250979     5A     -1.475851     6A     -1.357486
       7A     -1.032999     8A     -0.837930     9A     -0.703065
      10A     -0.688465    11A     -0.657748    12A     -0.576537
      13A     -0.569697    14A     -0.561403    15A     -0.475343
      16A     -0.452433

  @DF-RHF Final Energy:  -227.84409044284749

   => Energetics <=

    Nuclear Repulsion Energy =            121.7484301664003823
    One-Electron Energy =                -552.7483911680285473
    Two-Electron Energy =                 203.1558705587806628
    Total Energy =                       -227.8440904428474880

  Dipole Moment: [D]
     X:     2.1046      Y:     0.7188      Z:    -0.2114     Total:     2.2340

    SAPT Results
  --------------------------------------------------------------------------------------------------------
    Electrostatics                 -0.07389472 [mEh]      -0.04636963 [kcal/mol]      -0.19401055 [kJ/mol]
      Elst10,r                     -0.07389472 [mEh]      -0.04636963 [kcal/mol]      -0.19401055 [kJ/mol]

    Exchange                        0.00000362 [mEh]       0.00000227 [kcal/mol]       0.00000950 [kJ/mol]
      Exch10                        0.00000362 [mEh]       0.00000227 [kcal/mol]       0.00000950 [kJ/mol]
      Exch10(S^2)                   0.00000362 [mEh]       0.00000227 [kcal/mol]       0.00000950 [kJ/mol]

    Induction                      -0.00434984 [mEh]      -0.00272957 [kcal/mol]      -0.01142051 [kJ/mol]
      Ind20,r                      -0.00437209 [mEh]      -0.00274353 [kcal/mol]      -0.01147892 [kJ/mol]
      Exch-Ind20,r                  0.00001138 [mEh]       0.00000714 [kcal/mol]       0.00002987 [kJ/mol]
      delta HF,r (2)                0.00001087 [mEh]       0.00000682 [kcal/mol]       0.00002854 [kJ/mol]

    Dispersion                     -0.03234006 [mEh]      -0.02029369 [kcal/mol]      -0.08490882 [kJ/mol]
      Disp20                       -0.03234127 [mEh]      -0.02029445 [kcal/mol]      -0.08491198 [kJ/mol]
      Exch-Disp20                   0.00000121 [mEh]       0.00000076 [kcal/mol]       0.00000317 [kJ/mol]
      Disp20 (SS)                  -0.01617063 [mEh]      -0.01014723 [kcal/mol]      -0.04245599 [kJ/mol]
      Disp20 (OS)                  -0.01617063 [mEh]      -0.01014723 [kcal/mol]      -0.04245599 [kJ/mol]
      Exch-Disp20 (SS)              0.00000099 [mEh]       0.00000062 [kcal/mol]       0.00000259 [kJ/mol]
      Exch-Disp20 (OS)              0.00000022 [mEh]       0.00000014 [kcal/mol]       0.00000057 [kJ/mol]

  Total HF                         -0.07824094 [mEh]      -0.04909693 [kcal/mol]      -0.20542156 [kJ/mol]
  Total SAPT0                      -0.11058100 [mEh]      -0.06939062 [kcal/mol]      -0.29033037 [kJ/mol]

  Special recipe for scaled SAPT0 (see Manual):
    Electrostatics sSAPT0          -0.07389472 [mEh]      -0.04636963 [kcal/mol]      -0.19401055 [kJ/mol]
    Exchange sSAPT0                 0.00000362 [mEh]       0.00000227 [kcal/mol]       0.00000950 [kJ/mol]
    Induction sSAPT0               -0.00434984 [mEh]      -0.00272957 [kcal/mol]      -0.01142051 [kJ/mol]
    Dispersion sSAPT0              -0.03234006 [mEh]      -0.02029369 [kcal/mol]      -0.08490882 [kJ/mol]
  Total sSAPT0                     -0.11058100 [mEh]      -0.06939062 [kcal/mol]      -0.29033037 [kJ/mol]
  --------------------------------------------------------------------------------------------------------

*** Psi4 exiting successfully. Buy a developer a beer!
