                               Psi4 1.4rc3

  ==> Input File <==

--------------------------------------------------------------------------
# PSI4 file produced by CrystaLattE

# Generated from:               acetic_acid.xyz
# Psithon input for N-mer:      2mer-0+213
# Number of atoms per monomer:  [8, 8]
# Number of replicas:           2
# COM priority:                 5.655925836756e-05
# Minimum COM separations:      13.786
# Separation priority:          9.242288705019e-05
# Minimum monomer separations:  11.704
# Cutoff priority:              4.178682498519e-06
# Nuclear repulsion energy:     282.6598777199961

memory 7 GB

molecule Dimer_0_213 {
  O           -5.53102237       2.93940290       1.97762624
  O           -2.40708886       0.90817734       0.04905909
  H           -0.50304887       1.37579205       4.63880908
  H            0.00000000       4.25104285       3.09072238
  H           -2.38948215       4.01916779       5.40195041
  H           -3.74771411       0.47147930      -1.21557512
  C           -1.41859782       2.98500500       3.84405190
  C           -3.32263781       2.28628814       1.91221413
--
  O          -17.96136005      20.40268695      -3.47338325
  O          -21.08529356      22.43391252      -5.40195041
  H          -22.98933354      21.96629780      -0.81220041
  H          -23.49238242      19.09104700      -2.36028711
  H          -21.10290027      19.32292206      -0.04905909
  H          -19.74466831      22.87061056      -6.66658461
  C          -22.07378459      20.35708485      -1.60695760
  C          -20.16974460      21.05580172      -3.53879536
units = au
no_com
no_reorient
}

set {
  e_convergence 10
  d_convergence 10
  scf_type df
  mp2_type df
  cc_type df
  freeze_core true
}

energy('sapt0/aug-cc-pvdz')

--------------------------------------------------------------------------

  //              Dimer HF             //
    Molecular point group: c1
  Charge       = 0
  Multiplicity = 1
  Basis Set: AUG-CC-PVDZ
    Blend: AUG-CC-PVDZ
  Basis Set: (AUG-CC-PVDZ AUX)
    Blend: AUG-CC-PVDZ-JKFIT
  @DF-RHF Final Energy:  -455.68808381635392
    Total Energy =                       -455.6880838163539238
  //            Monomer A HF           //
    Molecular point group: c1
  Multiplicity = 1
  Basis Set: AUG-CC-PVDZ
    Blend: AUG-CC-PVDZ
  Basis Set: (AUG-CC-PVDZ AUX)
    Blend: AUG-CC-PVDZ-JKFIT
  @DF-RHF Final Energy:  -227.84408589628583
    Total Energy =                       -227.8440858962858329
  //            Monomer B HF           //
    Molecular point group: c1

    Geometry (in Bohr), charge = 0, multiplicity = 1:

       Center              X                  Y                   Z               Mass
    ------------   -----------------  -----------------  -----------------  -----------------
      Gh(O)          -5.531022370000     2.939402900000     1.977626240000    15.994914619570
      Gh(O)          -2.407088860000     0.908177340000     0.049059090000    15.994914619570
      Gh(H)          -0.503048870000     1.375792050000     4.638809080000     1.007825032230
      Gh(H)           0.000000000000     4.251042850000     3.090722380000     1.007825032230
      Gh(H)          -2.389482150000     4.019167790000     5.401950410000     1.007825032230
      Gh(H)          -3.747714110000     0.471479300000    -1.215575120000     1.007825032230
      Gh(C)          -1.418597820000     2.985005000000     3.844051900000    12.000000000000
      Gh(C)          -3.322637810000     2.286288140000     1.912214130000    12.000000000000
         O          -17.961360050000    20.402686950000    -3.473383250000    15.994914619570
         O          -21.085293560000    22.433912520000    -5.401950410000    15.994914619570
         H          -22.989333540000    21.966297800000    -0.812200410000     1.007825032230
         H          -23.492382420000    19.091047000000    -2.360287110000     1.007825032230
         H          -21.102900270000    19.322922060000    -0.049059090000     1.007825032230
         H          -19.744668310000    22.870610560000    -6.666584610000     1.007825032230
         C          -22.073784590000    20.357084850000    -1.606957600000    12.000000000000
         C          -20.169744600000    21.055801720000    -3.538795360000    12.000000000000

  Charge       = 0
  Multiplicity = 1
  Basis Set: AUG-CC-PVDZ
    Blend: AUG-CC-PVDZ
  Basis Set: (AUG-CC-PVDZ AUX)
    Blend: AUG-CC-PVDZ-JKFIT

    Orbital Energies [Eh]
    ---------------------

    Doubly Occupied:

       1A    -20.629476     2A    -20.552804     3A    -11.396108
       4A    -11.250979     5A     -1.475853     6A     -1.357486
       7A     -1.032999     8A     -0.837930     9A     -0.703065
      10A     -0.688465    11A     -0.657749    12A     -0.576538
      13A     -0.569697    14A     -0.561403    15A     -0.475343
      16A     -0.452434

  @DF-RHF Final Energy:  -227.84408589545006

   => Energetics <=

    Nuclear Repulsion Energy =            121.7484302026104643
    One-Electron Energy =                -552.7483714092088576
    Two-Electron Energy =                 203.1558553111483434
    Total Energy =                       -227.8440858954500641

  Dipole Moment: [D]
     X:    -2.1048      Y:     0.7191      Z:    -0.2116     Total:     2.2342

    SAPT Results
  --------------------------------------------------------------------------------------------------------
    Electrostatics                  0.08841782 [mEh]       0.05548302 [kcal/mol]       0.23214094 [kJ/mol]
      Elst10,r                      0.08841782 [mEh]       0.05548302 [kcal/mol]       0.23214094 [kJ/mol]

    Exchange                       -0.00000000 [mEh]      -0.00000000 [kcal/mol]      -0.00000000 [kJ/mol]
      Exch10                       -0.00000000 [mEh]      -0.00000000 [kcal/mol]      -0.00000000 [kJ/mol]
      Exch10(S^2)                  -0.00000000 [mEh]      -0.00000000 [kcal/mol]      -0.00000000 [kJ/mol]

    Induction                      -0.00044243 [mEh]      -0.00027763 [kcal/mol]      -0.00116161 [kJ/mol]
      Ind20,r                      -0.00045724 [mEh]      -0.00028692 [kcal/mol]      -0.00120048 [kJ/mol]
      Exch-Ind20,r                  0.00000000 [mEh]       0.00000000 [kcal/mol]       0.00000000 [kJ/mol]
      delta HF,r (2)                0.00001481 [mEh]       0.00000929 [kcal/mol]       0.00003887 [kJ/mol]

    Dispersion                     -0.00195662 [mEh]      -0.00122779 [kcal/mol]      -0.00513709 [kJ/mol]
      Disp20                       -0.00195662 [mEh]      -0.00122779 [kcal/mol]      -0.00513709 [kJ/mol]
      Exch-Disp20                   0.00000000 [mEh]       0.00000000 [kcal/mol]       0.00000000 [kJ/mol]
      Disp20 (SS)                  -0.00097831 [mEh]      -0.00061390 [kcal/mol]      -0.00256855 [kJ/mol]
      Disp20 (OS)                  -0.00097831 [mEh]      -0.00061390 [kcal/mol]      -0.00256855 [kJ/mol]
      Exch-Disp20 (SS)              0.00000000 [mEh]       0.00000000 [kcal/mol]       0.00000000 [kJ/mol]
      Exch-Disp20 (OS)              0.00000000 [mEh]       0.00000000 [kcal/mol]       0.00000000 [kJ/mol]

  Total HF                          0.08797538 [mEh]       0.05520539 [kcal/mol]       0.23097933 [kJ/mol]
  Total SAPT0                       0.08601877 [mEh]       0.05397759 [kcal/mol]       0.22584224 [kJ/mol]

  Special recipe for scaled SAPT0 (see Manual):
    Electrostatics sSAPT0           0.08841782 [mEh]       0.05548302 [kcal/mol]       0.23214094 [kJ/mol]
    Exchange sSAPT0                -0.00000000 [mEh]      -0.00000000 [kcal/mol]      -0.00000000 [kJ/mol]
    Induction sSAPT0               -0.00044243 [mEh]      -0.00027763 [kcal/mol]      -0.00116161 [kJ/mol]
    Dispersion sSAPT0              -0.00195662 [mEh]      -0.00122779 [kcal/mol]      -0.00513709 [kJ/mol]
  Total sSAPT0                      0.08601877 [mEh]       0.05397759 [kcal/mol]       0.22584224 [kJ/mol]
  --------------------------------------------------------------------------------------------------------

*** Psi4 exiting successfully. Buy a developer a beer!
