                               Psi4 1.4rc3

  ==> Input File <==

--------------------------------------------------------------------------
# PSI4 file produced by CrystaLattE

# Generated from:               acetic_acid.xyz
# Psithon input for N-mer:      2mer-0+259
# Number of atoms per monomer:  [8, 8]
# Number of replicas:           2
# COM priority:                 2.991506319805e-05
# Minimum COM separations:      17.047
# Separation priority:          5.034269439303e-05
# Minimum monomer separations:  14.331
# Cutoff priority:              1.858868241544e-06
# Nuclear repulsion energy:     275.2968141641576

memory 7 GB

molecule Dimer_0_259 {
  O           -5.53102237       2.93940290       1.97762624
  O           -2.40708886       0.90817734       0.04905909
  H           -0.50304887       1.37579205       4.63880908
  H            0.00000000       4.25104285       3.09072238
  H           -2.38948215       4.01916779       5.40195041
  H           -3.74771411       0.47147930      -1.21557512
  C           -1.41859782       2.98500500       3.84405190
  C           -3.32263781       2.28628814       1.91221413
--
  O            7.19108365      28.13185578     -14.37540224
  O            4.06715015      30.16308134     -16.30396940
  H            2.16311016      29.69546663     -11.71421941
  H            1.66006128      26.82021583     -13.26230610
  H            4.04954344      27.05209089     -10.95107808
  H            5.40777540      30.59977938     -17.56860360
  C            3.07865911      28.08625368     -12.50897659
  C            4.98269910      28.78497054     -14.44081435
units = au
no_com
no_reorient
}

set {
  e_convergence 10
  d_convergence 10
  scf_type df
  mp2_type df
  cc_type df
  freeze_core true
}

energy('sapt0/aug-cc-pvdz')

--------------------------------------------------------------------------

  //              Dimer HF             //
    Molecular point group: c1
  Charge       = 0
  Multiplicity = 1
  Basis Set: AUG-CC-PVDZ
    Blend: AUG-CC-PVDZ
  Basis Set: (AUG-CC-PVDZ AUX)
    Blend: AUG-CC-PVDZ-JKFIT
  @DF-RHF Final Energy:  -455.68819736200561
    Total Energy =                       -455.6881973620056101
  //            Monomer A HF           //
    Molecular point group: c1
  Multiplicity = 1
  Basis Set: AUG-CC-PVDZ
    Blend: AUG-CC-PVDZ
  Basis Set: (AUG-CC-PVDZ AUX)
    Blend: AUG-CC-PVDZ-JKFIT
  @DF-RHF Final Energy:  -227.84408589291780
    Total Energy =                       -227.8440858929178034
  //            Monomer B HF           //
    Molecular point group: c1

    Geometry (in Bohr), charge = 0, multiplicity = 1:

       Center              X                  Y                   Z               Mass
    ------------   -----------------  -----------------  -----------------  -----------------
      Gh(O)          -5.531022370000     2.939402900000     1.977626240000    15.994914619570
      Gh(O)          -2.407088860000     0.908177340000     0.049059090000    15.994914619570
      Gh(H)          -0.503048870000     1.375792050000     4.638809080000     1.007825032230
      Gh(H)           0.000000000000     4.251042850000     3.090722380000     1.007825032230
      Gh(H)          -2.389482150000     4.019167790000     5.401950410000     1.007825032230
      Gh(H)          -3.747714110000     0.471479300000    -1.215575120000     1.007825032230
      Gh(C)          -1.418597820000     2.985005000000     3.844051900000    12.000000000000
      Gh(C)          -3.322637810000     2.286288140000     1.912214130000    12.000000000000
         O            7.191083650000    28.131855780000   -14.375402240000    15.994914619570
         O            4.067150150000    30.163081340000   -16.303969400000    15.994914619570
         H            2.163110160000    29.695466630000   -11.714219410000     1.007825032230
         H            1.660061280000    26.820215830000   -13.262306100000     1.007825032230
         H            4.049543440000    27.052090890000   -10.951078080000     1.007825032230
         H            5.407775400000    30.599779380000   -17.568603600000     1.007825032230
         C            3.078659110000    28.086253680000   -12.508976590000    12.000000000000
         C            4.982699100000    28.784970540000   -14.440814350000    12.000000000000

  Charge       = 0
  Multiplicity = 1
  Basis Set: AUG-CC-PVDZ
    Blend: AUG-CC-PVDZ
  Basis Set: (AUG-CC-PVDZ AUX)
    Blend: AUG-CC-PVDZ-JKFIT

    Orbital Energies [Eh]
    ---------------------

    Doubly Occupied:

       1A    -20.629476     2A    -20.552804     3A    -11.396108
       4A    -11.250979     5A     -1.475853     6A     -1.357486
       7A     -1.032999     8A     -0.837930     9A     -0.703065
      10A     -0.688465    11A     -0.657749    12A     -0.576538
      13A     -0.569697    14A     -0.561403    15A     -0.475343
      16A     -0.452434

  @DF-RHF Final Energy:  -227.84408589408912

   => Energetics <=

    Nuclear Repulsion Energy =            121.7484303340280150
    One-Electron Energy =                -552.7483716681592796
    Two-Electron Energy =                 203.1558554400421599
    Total Energy =                       -227.8440858940891189

  Dipole Moment: [D]
     X:    -2.1048      Y:     0.7191      Z:    -0.2116     Total:     2.2342

    SAPT Results
  --------------------------------------------------------------------------------------------------------
    Electrostatics                 -0.02551706 [mEh]      -0.01601219 [kcal/mol]      -0.06699502 [kJ/mol]
      Elst10,r                     -0.02551706 [mEh]      -0.01601219 [kcal/mol]      -0.06699502 [kJ/mol]

    Exchange                       -0.00000000 [mEh]      -0.00000000 [kcal/mol]      -0.00000000 [kJ/mol]
      Exch10                       -0.00000000 [mEh]      -0.00000000 [kcal/mol]      -0.00000000 [kJ/mol]
      Exch10(S^2)                  -0.00000000 [mEh]      -0.00000000 [kcal/mol]      -0.00000000 [kJ/mol]

    Induction                      -0.00005794 [mEh]      -0.00003636 [kcal/mol]      -0.00015213 [kJ/mol]
      Ind20,r                      -0.00003044 [mEh]      -0.00001910 [kcal/mol]      -0.00007992 [kJ/mol]
      Exch-Ind20,r                  0.00000000 [mEh]       0.00000000 [kcal/mol]       0.00000000 [kJ/mol]
      delta HF,r (2)               -0.00002751 [mEh]      -0.00001726 [kcal/mol]      -0.00007221 [kJ/mol]

    Dispersion                     -0.00053137 [mEh]      -0.00033344 [kcal/mol]      -0.00139512 [kJ/mol]
      Disp20                       -0.00053137 [mEh]      -0.00033344 [kcal/mol]      -0.00139512 [kJ/mol]
      Exch-Disp20                   0.00000000 [mEh]       0.00000000 [kcal/mol]       0.00000000 [kJ/mol]
      Disp20 (SS)                  -0.00026569 [mEh]      -0.00016672 [kcal/mol]      -0.00069756 [kJ/mol]
      Disp20 (OS)                  -0.00026569 [mEh]      -0.00016672 [kcal/mol]      -0.00069756 [kJ/mol]
      Exch-Disp20 (SS)              0.00000000 [mEh]       0.00000000 [kcal/mol]       0.00000000 [kJ/mol]
      Exch-Disp20 (OS)              0.00000000 [mEh]       0.00000000 [kcal/mol]       0.00000000 [kJ/mol]

  Total HF                         -0.02557500 [mEh]      -0.01604855 [kcal/mol]      -0.06714715 [kJ/mol]
  Total SAPT0                      -0.02610637 [mEh]      -0.01638199 [kcal/mol]      -0.06854227 [kJ/mol]

  Special recipe for scaled SAPT0 (see Manual):
    Electrostatics sSAPT0          -0.02551706 [mEh]      -0.01601219 [kcal/mol]      -0.06699502 [kJ/mol]
    Exchange sSAPT0                -0.00000000 [mEh]      -0.00000000 [kcal/mol]      -0.00000000 [kJ/mol]
    Induction sSAPT0               -0.00005794 [mEh]      -0.00003636 [kcal/mol]      -0.00015213 [kJ/mol]
    Dispersion sSAPT0              -0.00053137 [mEh]      -0.00033344 [kcal/mol]      -0.00139512 [kJ/mol]
  Total sSAPT0                     -0.02610637 [mEh]      -0.01638199 [kcal/mol]      -0.06854227 [kJ/mol]
  --------------------------------------------------------------------------------------------------------

*** Psi4 exiting successfully. Buy a developer a beer!
