                               Psi4 1.4rc3

  ==> Input File <==

--------------------------------------------------------------------------
# PSI4 file produced by CrystaLattE

# Generated from:               acetic_acid.xyz
# Psithon input for N-mer:      2mer-0+68
# Number of atoms per monomer:  [8, 8]
# Number of replicas:           2
# COM priority:                 1.336545432362e-04
# Minimum COM separations:      10.350
# Separation priority:          3.487152131128e-04
# Minimum monomer separations:  7.518
# Cutoff priority:              2.454489578837e-05
# Nuclear repulsion energy:     295.8084116141059

memory 7 GB

molecule Dimer_0_68 {
  O           -5.53102237       2.93940290       1.97762624
  O           -2.40708886       0.90817734       0.04905909
  H           -0.50304887       1.37579205       4.63880908
  H            0.00000000       4.25104285       3.09072238
  H           -2.38948215       4.01916779       5.40195041
  H           -3.74771411       0.47147930      -1.21557512
  C           -1.41859782       2.98500500       3.84405190
  C           -3.32263781       2.28628814       1.91221413
--
  O            7.04519948      16.53810254       1.97762624
  O           10.16913299      18.56932810       0.04905909
  H           12.07317298      18.10171339       4.63880908
  H           12.57622185      15.22646259       3.09072238
  H           10.18673970      15.45833765       5.40195041
  H            8.82850774      19.00602614      -1.21557512
  C           11.15762403      16.49250044       3.84405190
  C            9.25358404      17.19121730       1.91221413
units = au
no_com
no_reorient
}

set {
  e_convergence 10
  d_convergence 10
  scf_type df
  mp2_type df
  cc_type df
  freeze_core true
}

energy('sapt0/aug-cc-pvdz')

--------------------------------------------------------------------------

  //              Dimer HF             //
    Molecular point group: c1
  Charge       = 0
  Multiplicity = 1
  Basis Set: AUG-CC-PVDZ
    Blend: AUG-CC-PVDZ
  Basis Set: (AUG-CC-PVDZ AUX)
    Blend: AUG-CC-PVDZ-JKFIT
  @DF-RHF Final Energy:  -455.68825391451242
    Total Energy =                       -455.6882539145124156
  //            Monomer A HF           //
    Molecular point group: c1
  Multiplicity = 1
  Basis Set: AUG-CC-PVDZ
    Blend: AUG-CC-PVDZ
  Basis Set: (AUG-CC-PVDZ AUX)
    Blend: AUG-CC-PVDZ-JKFIT
  @DF-RHF Final Energy:  -227.84408697107907
    Total Energy =                       -227.8440869710790651
  //            Monomer B HF           //
    Molecular point group: c1

    Geometry (in Bohr), charge = 0, multiplicity = 1:

       Center              X                  Y                   Z               Mass
    ------------   -----------------  -----------------  -----------------  -----------------
      Gh(O)          -5.531022370000     2.939402900000     1.977626240000    15.994914619570
      Gh(O)          -2.407088860000     0.908177340000     0.049059090000    15.994914619570
      Gh(H)          -0.503048870000     1.375792050000     4.638809080000     1.007825032230
      Gh(H)           0.000000000000     4.251042850000     3.090722380000     1.007825032230
      Gh(H)          -2.389482150000     4.019167790000     5.401950410000     1.007825032230
      Gh(H)          -3.747714110000     0.471479300000    -1.215575120000     1.007825032230
      Gh(C)          -1.418597820000     2.985005000000     3.844051900000    12.000000000000
      Gh(C)          -3.322637810000     2.286288140000     1.912214130000    12.000000000000
         O            7.045199480000    16.538102540000     1.977626240000    15.994914619570
         O           10.169132990000    18.569328100000     0.049059090000    15.994914619570
         H           12.073172980000    18.101713390000     4.638809080000     1.007825032230
         H           12.576221850000    15.226462590000     3.090722380000     1.007825032230
         H           10.186739700000    15.458337650000     5.401950410000     1.007825032230
         H            8.828507740000    19.006026140000    -1.215575120000     1.007825032230
         C           11.157624030000    16.492500440000     3.844051900000    12.000000000000
         C            9.253584040000    17.191217300000     1.912214130000    12.000000000000

  Charge       = 0
  Multiplicity = 1
  Basis Set: AUG-CC-PVDZ
    Blend: AUG-CC-PVDZ
  Basis Set: (AUG-CC-PVDZ AUX)
    Blend: AUG-CC-PVDZ-JKFIT

    Orbital Energies [Eh]
    ---------------------

    Doubly Occupied:

       1A    -20.629475     2A    -20.552806     3A    -11.396108
       4A    -11.250979     5A     -1.475852     6A     -1.357486
       7A     -1.032999     8A     -0.837930     9A     -0.703065
      10A     -0.688465    11A     -0.657748    12A     -0.576538
      13A     -0.569697    14A     -0.561403    15A     -0.475344
      16A     -0.452433

  @DF-RHF Final Energy:  -227.84408911512577

   => Energetics <=

    Nuclear Repulsion Energy =            121.7484302109716623
    One-Electron Energy =                -552.7483838883854332
    Two-Electron Energy =                 203.1558645622880022
    Total Energy =                       -227.8440891151257688

  Dipole Moment: [D]
     X:     2.1045      Y:     0.7190      Z:    -0.2114     Total:     2.2340

    SAPT Results
  --------------------------------------------------------------------------------------------------------
    Electrostatics                 -0.07550942 [mEh]      -0.04738288 [kcal/mol]      -0.19824996 [kJ/mol]
      Elst10,r                     -0.07550942 [mEh]      -0.04738288 [kcal/mol]      -0.19824996 [kJ/mol]

    Exchange                        0.00000142 [mEh]       0.00000089 [kcal/mol]       0.00000372 [kJ/mol]
      Exch10                        0.00000142 [mEh]       0.00000089 [kcal/mol]       0.00000372 [kJ/mol]
      Exch10(S^2)                   0.00000142 [mEh]       0.00000089 [kcal/mol]       0.00000372 [kJ/mol]

    Induction                      -0.00232031 [mEh]      -0.00145601 [kcal/mol]      -0.00609196 [kJ/mol]
      Ind20,r                      -0.00222731 [mEh]      -0.00139766 [kcal/mol]      -0.00584781 [kJ/mol]
      Exch-Ind20,r                  0.00000420 [mEh]       0.00000264 [kcal/mol]       0.00001103 [kJ/mol]
      delta HF,r (2)               -0.00009719 [mEh]      -0.00006099 [kcal/mol]      -0.00025517 [kJ/mol]

    Dispersion                     -0.01320826 [mEh]      -0.00828831 [kcal/mol]      -0.03467829 [kJ/mol]
      Disp20                       -0.01320866 [mEh]      -0.00828856 [kcal/mol]      -0.03467933 [kJ/mol]
      Exch-Disp20                   0.00000040 [mEh]       0.00000025 [kcal/mol]       0.00000105 [kJ/mol]
      Disp20 (SS)                  -0.00660433 [mEh]      -0.00414428 [kcal/mol]      -0.01733967 [kJ/mol]
      Disp20 (OS)                  -0.00660433 [mEh]      -0.00414428 [kcal/mol]      -0.01733967 [kJ/mol]
      Exch-Disp20 (SS)              0.00000033 [mEh]       0.00000021 [kcal/mol]       0.00000087 [kJ/mol]
      Exch-Disp20 (OS)              0.00000007 [mEh]       0.00000004 [kcal/mol]       0.00000018 [kJ/mol]

  Total HF                         -0.07782831 [mEh]      -0.04883800 [kcal/mol]      -0.20433819 [kJ/mol]
  Total SAPT0                      -0.09103657 [mEh]      -0.05712631 [kcal/mol]      -0.23901648 [kJ/mol]

  Special recipe for scaled SAPT0 (see Manual):
    Electrostatics sSAPT0          -0.07550942 [mEh]      -0.04738288 [kcal/mol]      -0.19824996 [kJ/mol]
    Exchange sSAPT0                 0.00000142 [mEh]       0.00000089 [kcal/mol]       0.00000372 [kJ/mol]
    Induction sSAPT0               -0.00232031 [mEh]      -0.00145601 [kcal/mol]      -0.00609196 [kJ/mol]
    Dispersion sSAPT0              -0.01320826 [mEh]      -0.00828831 [kcal/mol]      -0.03467829 [kJ/mol]
  Total sSAPT0                     -0.09103657 [mEh]      -0.05712631 [kcal/mol]      -0.23901648 [kJ/mol]
  --------------------------------------------------------------------------------------------------------

*** Psi4 exiting successfully. Buy a developer a beer!
