                               Psi4 1.4rc3

  ==> Input File <==

--------------------------------------------------------------------------
# PSI4 file produced by CrystaLattE

# Generated from:               acetic_acid.xyz
# Psithon input for N-mer:      2mer-0+200
# Number of atoms per monomer:  [8, 8]
# Number of replicas:           2
# COM priority:                 3.069319668746e-05
# Minimum COM separations:      16.901
# Separation priority:          5.765200825604e-05
# Minimum monomer separations:  13.698
# Cutoff priority:              2.227165994081e-06
# Nuclear repulsion energy:     275.5712263389868

memory 7 GB

molecule Dimer_0_200 {
  O           -5.53102237       2.93940290       1.97762624
  O           -2.40708886       0.90817734       0.04905909
  H           -0.50304887       1.37579205       4.63880908
  H            0.00000000       4.25104285       3.09072238
  H           -2.38948215       4.01916779       5.40195041
  H           -3.74771411       0.47147930      -1.21557512
  C           -1.41859782       2.98500500       3.84405190
  C           -3.32263781       2.28628814       1.91221413
--
  O           -5.38513820     -24.11268799     -14.37540224
  O           -8.50907170     -26.14391355     -16.30396940
  H          -10.41311169     -25.67629884     -11.71421941
  H          -10.91616057     -22.80104804     -13.26230610
  H           -8.52667842     -23.03292310     -10.95107808
  H           -7.16844646     -26.58061159     -17.56860360
  C           -9.49756274     -24.06708589     -12.50897659
  C           -7.59352275     -24.76580275     -14.44081435
units = au
no_com
no_reorient
}

set {
  e_convergence 10
  d_convergence 10
  scf_type df
  mp2_type df
  cc_type df
  freeze_core true
}

energy('sapt0/aug-cc-pvdz')

--------------------------------------------------------------------------

  //              Dimer HF             //
    Molecular point group: c1
  Charge       = 0
  Multiplicity = 1
  Basis Set: AUG-CC-PVDZ
    Blend: AUG-CC-PVDZ
  Basis Set: (AUG-CC-PVDZ AUX)
    Blend: AUG-CC-PVDZ-JKFIT
  @DF-RHF Final Energy:  -455.68819951509209
    Total Energy =                       -455.6881995150920943
  //            Monomer A HF           //
    Molecular point group: c1
  Multiplicity = 1
  Basis Set: AUG-CC-PVDZ
    Blend: AUG-CC-PVDZ
  Basis Set: (AUG-CC-PVDZ AUX)
    Blend: AUG-CC-PVDZ-JKFIT
  @DF-RHF Final Energy:  -227.84408589608080
    Total Energy =                       -227.8440858960807986
  //            Monomer B HF           //
    Molecular point group: c1

    Geometry (in Bohr), charge = 0, multiplicity = 1:

       Center              X                  Y                   Z               Mass
    ------------   -----------------  -----------------  -----------------  -----------------
      Gh(O)          -5.531022370000     2.939402900000     1.977626240000    15.994914619570
      Gh(O)          -2.407088860000     0.908177340000     0.049059090000    15.994914619570
      Gh(H)          -0.503048870000     1.375792050000     4.638809080000     1.007825032230
      Gh(H)           0.000000000000     4.251042850000     3.090722380000     1.007825032230
      Gh(H)          -2.389482150000     4.019167790000     5.401950410000     1.007825032230
      Gh(H)          -3.747714110000     0.471479300000    -1.215575120000     1.007825032230
      Gh(C)          -1.418597820000     2.985005000000     3.844051900000    12.000000000000
      Gh(C)          -3.322637810000     2.286288140000     1.912214130000    12.000000000000
         O           -5.385138200000   -24.112687990000   -14.375402240000    15.994914619570
         O           -8.509071700000   -26.143913550000   -16.303969400000    15.994914619570
         H          -10.413111690000   -25.676298840000   -11.714219410000     1.007825032230
         H          -10.916160570000   -22.801048040000   -13.262306100000     1.007825032230
         H           -8.526678420000   -23.032923100000   -10.951078080000     1.007825032230
         H           -7.168446460000   -26.580611590000   -17.568603600000     1.007825032230
         C           -9.497562740000   -24.067085890000   -12.508976590000    12.000000000000
         C           -7.593522750000   -24.765802750000   -14.440814350000    12.000000000000

  Charge       = 0
  Multiplicity = 1
  Basis Set: AUG-CC-PVDZ
    Blend: AUG-CC-PVDZ
  Basis Set: (AUG-CC-PVDZ AUX)
    Blend: AUG-CC-PVDZ-JKFIT

    Orbital Energies [Eh]
    ---------------------

    Doubly Occupied:

       1A    -20.629476     2A    -20.552804     3A    -11.396108
       4A    -11.250979     5A     -1.475853     6A     -1.357486
       7A     -1.032999     8A     -0.837930     9A     -0.703065
      10A     -0.688465    11A     -0.657749    12A     -0.576538
      13A     -0.569697    14A     -0.561403    15A     -0.475343
      16A     -0.452434

  @DF-RHF Final Energy:  -227.84408589472616

   => Energetics <=

    Nuclear Repulsion Energy =            121.7484303537063255
    One-Electron Energy =                -552.7483717053036116
    Two-Electron Energy =                 203.1558554568711088
    Total Energy =                       -227.8440858947261631

  Dipole Moment: [D]
     X:    -2.1048      Y:    -0.7191      Z:    -0.2116     Total:     2.2342

    SAPT Results
  --------------------------------------------------------------------------------------------------------
    Electrostatics                 -0.02766194 [mEh]      -0.01735813 [kcal/mol]      -0.07262641 [kJ/mol]
      Elst10,r                     -0.02766194 [mEh]      -0.01735813 [kcal/mol]      -0.07262641 [kJ/mol]

    Exchange                       -0.00000000 [mEh]      -0.00000000 [kcal/mol]      -0.00000000 [kJ/mol]
      Exch10                       -0.00000000 [mEh]      -0.00000000 [kcal/mol]      -0.00000000 [kJ/mol]
      Exch10(S^2)                  -0.00000000 [mEh]      -0.00000000 [kcal/mol]      -0.00000000 [kJ/mol]

    Induction                      -0.00006235 [mEh]      -0.00003912 [kcal/mol]      -0.00016369 [kJ/mol]
      Ind20,r                      -0.00004243 [mEh]      -0.00002663 [kcal/mol]      -0.00011141 [kJ/mol]
      Exch-Ind20,r                  0.00000000 [mEh]       0.00000000 [kcal/mol]       0.00000000 [kJ/mol]
      delta HF,r (2)               -0.00001991 [mEh]      -0.00001250 [kcal/mol]      -0.00005228 [kJ/mol]

    Dispersion                     -0.00056182 [mEh]      -0.00035255 [kcal/mol]      -0.00147506 [kJ/mol]
      Disp20                       -0.00056182 [mEh]      -0.00035255 [kcal/mol]      -0.00147506 [kJ/mol]
      Exch-Disp20                   0.00000000 [mEh]       0.00000000 [kcal/mol]       0.00000000 [kJ/mol]
      Disp20 (SS)                  -0.00028091 [mEh]      -0.00017627 [kcal/mol]      -0.00073753 [kJ/mol]
      Disp20 (OS)                  -0.00028091 [mEh]      -0.00017627 [kcal/mol]      -0.00073753 [kJ/mol]
      Exch-Disp20 (SS)              0.00000000 [mEh]       0.00000000 [kcal/mol]       0.00000000 [kJ/mol]
      Exch-Disp20 (OS)              0.00000000 [mEh]       0.00000000 [kcal/mol]       0.00000000 [kJ/mol]

  Total HF                         -0.02772429 [mEh]      -0.01739725 [kcal/mol]      -0.07279010 [kJ/mol]
  Total SAPT0                      -0.02828610 [mEh]      -0.01774980 [kcal/mol]      -0.07426516 [kJ/mol]

  Special recipe for scaled SAPT0 (see Manual):
    Electrostatics sSAPT0          -0.02766194 [mEh]      -0.01735813 [kcal/mol]      -0.07262641 [kJ/mol]
    Exchange sSAPT0                -0.00000000 [mEh]      -0.00000000 [kcal/mol]      -0.00000000 [kJ/mol]
    Induction sSAPT0               -0.00006235 [mEh]      -0.00003912 [kcal/mol]      -0.00016369 [kJ/mol]
    Dispersion sSAPT0              -0.00056182 [mEh]      -0.00035255 [kcal/mol]      -0.00147506 [kJ/mol]
  Total sSAPT0                     -0.02828610 [mEh]      -0.01774980 [kcal/mol]      -0.07426516 [kJ/mol]
  --------------------------------------------------------------------------------------------------------

*** Psi4 exiting successfully. Buy a developer a beer!
