                               Psi4 1.4rc3

  ==> Input File <==

--------------------------------------------------------------------------
# PSI4 file produced by CrystaLattE

# Generated from:               acetic_acid.xyz
# Psithon input for N-mer:      2mer-0+487
# Number of atoms per monomer:  [8, 8]
# Number of replicas:           2
# COM priority:                 1.544574573123e-05
# Minimum COM separations:      21.249
# Separation priority:          1.977933499279e-05
# Minimum monomer separations:  19.567
# Cutoff priority:              5.349118856382e-07
# Nuclear repulsion energy:     268.922648612777

memory 7 GB

molecule Dimer_0_487 {
  O           -5.53102237       2.93940290       1.97762624
  O           -2.40708886       0.90817734       0.04905909
  H           -0.50304887       1.37579205       4.63880908
  H            0.00000000       4.25104285       3.09072238
  H           -2.38948215       4.01916779       5.40195041
  H           -3.74771411       0.47147930      -1.21557512
  C           -1.41859782       2.98500500       3.84405190
  C           -3.32263781       2.28628814       1.91221413
--
  O           -5.53102237     -35.70644122      12.87964524
  O           -2.40708886     -37.73766679      10.95107808
  H           -0.50304887     -37.27005208      15.54082807
  H            0.00000000     -34.39480127      13.99274137
  H           -2.38948215     -34.62667634      16.30396940
  H           -3.74771411     -38.17436483       9.68644387
  C           -1.41859782     -35.66083913      14.74607089
  C           -3.32263781     -36.35955599      12.81423312
units = au
no_com
no_reorient
}

set {
  e_convergence 10
  d_convergence 10
  scf_type df
  mp2_type df
  cc_type df
  freeze_core true
}

energy('sapt0/aug-cc-pvdz')

--------------------------------------------------------------------------

  //              Dimer HF             //
    Molecular point group: c1
  Charge       = 0
  Multiplicity = 1
  Basis Set: AUG-CC-PVDZ
    Blend: AUG-CC-PVDZ
  Basis Set: (AUG-CC-PVDZ AUX)
    Blend: AUG-CC-PVDZ-JKFIT
  @DF-RHF Final Energy:  -455.68816249320298
    Total Energy =                       -455.6881624932029808
  //            Monomer A HF           //
    Molecular point group: c1
  Multiplicity = 1
  Basis Set: AUG-CC-PVDZ
    Blend: AUG-CC-PVDZ
  Basis Set: (AUG-CC-PVDZ AUX)
    Blend: AUG-CC-PVDZ-JKFIT
  @DF-RHF Final Energy:  -227.84408589532495
    Total Energy =                       -227.8440858953249517
  //            Monomer B HF           //
    Molecular point group: c1

    Geometry (in Bohr), charge = 0, multiplicity = 1:

       Center              X                  Y                   Z               Mass
    ------------   -----------------  -----------------  -----------------  -----------------
      Gh(O)          -5.531022370000     2.939402900000     1.977626240000    15.994914619570
      Gh(O)          -2.407088860000     0.908177340000     0.049059090000    15.994914619570
      Gh(H)          -0.503048870000     1.375792050000     4.638809080000     1.007825032230
      Gh(H)           0.000000000000     4.251042850000     3.090722380000     1.007825032230
      Gh(H)          -2.389482150000     4.019167790000     5.401950410000     1.007825032230
      Gh(H)          -3.747714110000     0.471479300000    -1.215575120000     1.007825032230
      Gh(C)          -1.418597820000     2.985005000000     3.844051900000    12.000000000000
      Gh(C)          -3.322637810000     2.286288140000     1.912214130000    12.000000000000
         O           -5.531022370000   -35.706441220000    12.879645240000    15.994914619570
         O           -2.407088860000   -37.737666790000    10.951078080000    15.994914619570
         H           -0.503048870000   -37.270052080000    15.540828070000     1.007825032230
         H            0.000000000000   -34.394801270000    13.992741370000     1.007825032230
         H           -2.389482150000   -34.626676340000    16.303969400000     1.007825032230
         H           -3.747714110000   -38.174364830000     9.686443870000     1.007825032230
         C           -1.418597820000   -35.660839130000    14.746070890000    12.000000000000
         C           -3.322637810000   -36.359555990000    12.814233120000    12.000000000000

  Charge       = 0
  Multiplicity = 1
  Basis Set: AUG-CC-PVDZ
    Blend: AUG-CC-PVDZ
  Basis Set: (AUG-CC-PVDZ AUX)
    Blend: AUG-CC-PVDZ-JKFIT

    Orbital Energies [Eh]
    ---------------------

    Doubly Occupied:

       1A    -20.629476     2A    -20.552804     3A    -11.396108
       4A    -11.250979     5A     -1.475853     6A     -1.357486
       7A     -1.032999     8A     -0.837930     9A     -0.703065
      10A     -0.688465    11A     -0.657749    12A     -0.576538
      13A     -0.569697    14A     -0.561403    15A     -0.475343
      16A     -0.452434

  @DF-RHF Final Energy:  -227.84408589522263

   => Energetics <=

    Nuclear Repulsion Energy =            121.7484301437084753
    One-Electron Energy =                -552.7483713053450174
    Two-Electron Energy =                 203.1558552664139370
    Total Energy =                       -227.8440858952226336

  Dipole Moment: [D]
     X:     2.1048      Y:    -0.7191      Z:    -0.2116     Total:     2.2342

    SAPT Results
  --------------------------------------------------------------------------------------------------------
    Electrostatics                  0.00932136 [mEh]       0.00584924 [kcal/mol]       0.02447322 [kJ/mol]
      Elst10,r                      0.00932136 [mEh]       0.00584924 [kcal/mol]       0.02447322 [kJ/mol]

    Exchange                       -0.00000000 [mEh]      -0.00000000 [kcal/mol]      -0.00000000 [kJ/mol]
      Exch10                       -0.00000000 [mEh]      -0.00000000 [kcal/mol]      -0.00000000 [kJ/mol]
      Exch10(S^2)                  -0.00000000 [mEh]      -0.00000000 [kcal/mol]      -0.00000000 [kJ/mol]

    Induction                      -0.00002401 [mEh]      -0.00001507 [kcal/mol]      -0.00006305 [kJ/mol]
      Ind20,r                      -0.00000681 [mEh]      -0.00000427 [kcal/mol]      -0.00001787 [kJ/mol]
      Exch-Ind20,r                  0.00000000 [mEh]       0.00000000 [kcal/mol]       0.00000000 [kJ/mol]
      delta HF,r (2)               -0.00001721 [mEh]      -0.00001080 [kcal/mol]      -0.00004518 [kJ/mol]

    Dispersion                     -0.00012075 [mEh]      -0.00007577 [kcal/mol]      -0.00031702 [kJ/mol]
      Disp20                       -0.00012075 [mEh]      -0.00007577 [kcal/mol]      -0.00031702 [kJ/mol]
      Exch-Disp20                   0.00000000 [mEh]       0.00000000 [kcal/mol]       0.00000000 [kJ/mol]
      Disp20 (SS)                  -0.00006037 [mEh]      -0.00003789 [kcal/mol]      -0.00015851 [kJ/mol]
      Disp20 (OS)                  -0.00006037 [mEh]      -0.00003789 [kcal/mol]      -0.00015851 [kJ/mol]
      Exch-Disp20 (SS)              0.00000000 [mEh]       0.00000000 [kcal/mol]       0.00000000 [kJ/mol]
      Exch-Disp20 (OS)              0.00000000 [mEh]       0.00000000 [kcal/mol]       0.00000000 [kJ/mol]

  Total HF                          0.00929734 [mEh]       0.00583417 [kcal/mol]       0.02441017 [kJ/mol]
  Total SAPT0                       0.00917660 [mEh]       0.00575840 [kcal/mol]       0.02409315 [kJ/mol]

  Special recipe for scaled SAPT0 (see Manual):
    Electrostatics sSAPT0           0.00932136 [mEh]       0.00584924 [kcal/mol]       0.02447322 [kJ/mol]
    Exchange sSAPT0                -0.00000000 [mEh]      -0.00000000 [kcal/mol]      -0.00000000 [kJ/mol]
    Induction sSAPT0               -0.00002401 [mEh]      -0.00001507 [kcal/mol]      -0.00006305 [kJ/mol]
    Dispersion sSAPT0              -0.00012075 [mEh]      -0.00007577 [kcal/mol]      -0.00031702 [kJ/mol]
  Total sSAPT0                      0.00917660 [mEh]       0.00575840 [kcal/mol]       0.02409315 [kJ/mol]
  --------------------------------------------------------------------------------------------------------

*** Psi4 exiting successfully. Buy a developer a beer!
