                               Psi4 1.4rc3

  ==> Input File <==

--------------------------------------------------------------------------
# PSI4 file produced by CrystaLattE

# Generated from:               acetic_acid.xyz
# Psithon input for N-mer:      2mer-0+497
# Number of atoms per monomer:  [8, 8]
# Number of replicas:           2
# COM priority:                 1.313497909032e-05
# Minimum COM separations:      22.428
# Separation priority:          1.939167342388e-05
# Minimum monomer separations:  19.697
# Cutoff priority:              5.209792002964e-07
# Nuclear repulsion energy:     267.6750748663027

memory 7 GB

molecule Dimer_0_497 {
  O           -5.53102237       2.93940290       1.97762624
  O           -2.40708886       0.90817734       0.04905909
  H           -0.50304887       1.37579205       4.63880908
  H            0.00000000       4.25104285       3.09072238
  H           -2.38948215       4.01916779       5.40195041
  H           -3.74771411       0.47147930      -1.21557512
  C           -1.41859782       2.98500500       3.84405190
  C           -3.32263781       2.28628814       1.91221413
--
  O           32.19764318     -14.37857277      12.87964524
  O           35.32157669     -12.34734720      10.95107808
  H           37.22561668     -12.81496191      15.54082807
  H           37.72866555     -15.69021272      13.99274137
  H           35.33918340     -15.45833765      16.30396940
  H           33.98095144     -11.91064916       9.68644387
  C           36.31006773     -14.42417486      14.74607089
  C           34.40602774     -13.72545800      12.81423312
units = au
no_com
no_reorient
}

set {
  e_convergence 10
  d_convergence 10
  scf_type df
  mp2_type df
  cc_type df
  freeze_core true
}

energy('sapt0/aug-cc-pvdz')

--------------------------------------------------------------------------

  //              Dimer HF             //
    Molecular point group: c1
  Charge       = 0
  Multiplicity = 1
  Basis Set: AUG-CC-PVDZ
    Blend: AUG-CC-PVDZ
  Basis Set: (AUG-CC-PVDZ AUX)
    Blend: AUG-CC-PVDZ-JKFIT
  @DF-RHF Final Energy:  -455.68818081078035
    Total Energy =                       -455.6881808107803522
  //            Monomer A HF           //
    Molecular point group: c1
  Multiplicity = 1
  Basis Set: AUG-CC-PVDZ
    Blend: AUG-CC-PVDZ
  Basis Set: (AUG-CC-PVDZ AUX)
    Blend: AUG-CC-PVDZ-JKFIT
  @DF-RHF Final Energy:  -227.84408589547681
    Total Energy =                       -227.8440858954768089
  //            Monomer B HF           //
    Molecular point group: c1

    Geometry (in Bohr), charge = 0, multiplicity = 1:

       Center              X                  Y                   Z               Mass
    ------------   -----------------  -----------------  -----------------  -----------------
      Gh(O)          -5.531022370000     2.939402900000     1.977626240000    15.994914619570
      Gh(O)          -2.407088860000     0.908177340000     0.049059090000    15.994914619570
      Gh(H)          -0.503048870000     1.375792050000     4.638809080000     1.007825032230
      Gh(H)           0.000000000000     4.251042850000     3.090722380000     1.007825032230
      Gh(H)          -2.389482150000     4.019167790000     5.401950410000     1.007825032230
      Gh(H)          -3.747714110000     0.471479300000    -1.215575120000     1.007825032230
      Gh(C)          -1.418597820000     2.985005000000     3.844051900000    12.000000000000
      Gh(C)          -3.322637810000     2.286288140000     1.912214130000    12.000000000000
         O           32.197643180000   -14.378572770000    12.879645240000    15.994914619570
         O           35.321576690000   -12.347347200000    10.951078080000    15.994914619570
         H           37.225616680000   -12.814961910000    15.540828070000     1.007825032230
         H           37.728665550000   -15.690212720000    13.992741370000     1.007825032230
         H           35.339183400000   -15.458337650000    16.303969400000     1.007825032230
         H           33.980951440000   -11.910649160000     9.686443870000     1.007825032230
         C           36.310067730000   -14.424174860000    14.746070890000    12.000000000000
         C           34.406027740000   -13.725458000000    12.814233120000    12.000000000000

  Charge       = 0
  Multiplicity = 1
  Basis Set: AUG-CC-PVDZ
    Blend: AUG-CC-PVDZ
  Basis Set: (AUG-CC-PVDZ AUX)
    Blend: AUG-CC-PVDZ-JKFIT

    Orbital Energies [Eh]
    ---------------------

    Doubly Occupied:

       1A    -20.629476     2A    -20.552804     3A    -11.396108
       4A    -11.250979     5A     -1.475853     6A     -1.357486
       7A     -1.032999     8A     -0.837930     9A     -0.703065
      10A     -0.688465    11A     -0.657749    12A     -0.576538
      13A     -0.569697    14A     -0.561403    15A     -0.475343
      16A     -0.452434

  @DF-RHF Final Energy:  -227.84408589661328

   => Energetics <=

    Nuclear Repulsion Energy =            121.7484301437084326
    One-Electron Energy =                -552.7483713134428172
    Two-Electron Energy =                 203.1558552731210909
    Total Energy =                       -227.8440858966132794

  Dipole Moment: [D]
     X:     2.1048      Y:     0.7191      Z:    -0.2116     Total:     2.2342

    SAPT Results
  --------------------------------------------------------------------------------------------------------
    Electrostatics                 -0.00899510 [mEh]      -0.00564451 [kcal/mol]      -0.02361664 [kJ/mol]
      Elst10,r                     -0.00899510 [mEh]      -0.00564451 [kcal/mol]      -0.02361664 [kJ/mol]

    Exchange                       -0.00000000 [mEh]      -0.00000000 [kcal/mol]      -0.00000000 [kJ/mol]
      Exch10                       -0.00000000 [mEh]      -0.00000000 [kcal/mol]      -0.00000000 [kJ/mol]
      Exch10(S^2)                  -0.00000000 [mEh]      -0.00000000 [kcal/mol]      -0.00000000 [kJ/mol]

    Induction                      -0.00002359 [mEh]      -0.00001480 [kcal/mol]      -0.00006193 [kJ/mol]
      Ind20,r                      -0.00001136 [mEh]      -0.00000713 [kcal/mol]      -0.00002983 [kJ/mol]
      Exch-Ind20,r                  0.00000000 [mEh]       0.00000000 [kcal/mol]       0.00000000 [kJ/mol]
      delta HF,r (2)               -0.00001223 [mEh]      -0.00000767 [kcal/mol]      -0.00003210 [kJ/mol]

    Dispersion                     -0.00010516 [mEh]      -0.00006599 [kcal/mol]      -0.00027609 [kJ/mol]
      Disp20                       -0.00010516 [mEh]      -0.00006599 [kcal/mol]      -0.00027609 [kJ/mol]
      Exch-Disp20                   0.00000000 [mEh]       0.00000000 [kcal/mol]       0.00000000 [kJ/mol]
      Disp20 (SS)                  -0.00005258 [mEh]      -0.00003299 [kcal/mol]      -0.00013804 [kJ/mol]
      Disp20 (OS)                  -0.00005258 [mEh]      -0.00003299 [kcal/mol]      -0.00013804 [kJ/mol]
      Exch-Disp20 (SS)              0.00000000 [mEh]       0.00000000 [kcal/mol]       0.00000000 [kJ/mol]
      Exch-Disp20 (OS)              0.00000000 [mEh]       0.00000000 [kcal/mol]       0.00000000 [kJ/mol]

  Total HF                         -0.00901869 [mEh]      -0.00565931 [kcal/mol]      -0.02367857 [kJ/mol]
  Total SAPT0                      -0.00912385 [mEh]      -0.00572530 [kcal/mol]      -0.02395466 [kJ/mol]

  Special recipe for scaled SAPT0 (see Manual):
    Electrostatics sSAPT0          -0.00899510 [mEh]      -0.00564451 [kcal/mol]      -0.02361664 [kJ/mol]
    Exchange sSAPT0                -0.00000000 [mEh]      -0.00000000 [kcal/mol]      -0.00000000 [kJ/mol]
    Induction sSAPT0               -0.00002359 [mEh]      -0.00001480 [kcal/mol]      -0.00006193 [kJ/mol]
    Dispersion sSAPT0              -0.00010516 [mEh]      -0.00006599 [kcal/mol]      -0.00027609 [kJ/mol]
  Total sSAPT0                     -0.00912385 [mEh]      -0.00572530 [kcal/mol]      -0.02395466 [kJ/mol]
  --------------------------------------------------------------------------------------------------------

*** Psi4 exiting successfully. Buy a developer a beer!
