                               Psi4 1.4rc3

  ==> Input File <==

--------------------------------------------------------------------------
# PSI4 file produced by CrystaLattE

# Generated from:               acetic_acid.xyz
# Psithon input for N-mer:      2mer-0+352
# Number of atoms per monomer:  [8, 8]
# Number of replicas:           2
# COM priority:                 1.753051441319e-05
# Minimum COM separations:      20.371
# Separation priority:          2.637696529898e-05
# Minimum monomer separations:  17.777
# Cutoff priority:              7.851749532202e-07
# Nuclear repulsion energy:     270.0806100194246

memory 7 GB

molecule Dimer_0_352 {
  O           -5.53102237       2.93940290       1.97762624
  O           -2.40708886       0.90817734       0.04905909
  H           -0.50304887       1.37579205       4.63880908
  H            0.00000000       4.25104285       3.09072238
  H           -2.38948215       4.01916779       5.40195041
  H           -3.74771411       0.47147930      -1.21557512
  C           -1.41859782       2.98500500       3.84405190
  C           -3.32263781       2.28628814       1.91221413
--
  O            7.04519948     -14.37857277     -30.72843073
  O           10.16913299     -12.34734720     -32.65699789
  H           12.07317298     -12.81496191     -28.06724789
  H           12.57622185     -15.69021272     -29.61533459
  H           10.18673970     -15.45833765     -27.30410656
  H            8.82850774     -11.91064916     -33.92163209
  C           11.15762403     -14.42417486     -28.86200508
  C            9.25358404     -13.72545800     -30.79384284
units = au
no_com
no_reorient
}

set {
  e_convergence 10
  d_convergence 10
  scf_type df
  mp2_type df
  cc_type df
  freeze_core true
}

energy('sapt0/aug-cc-pvdz')

--------------------------------------------------------------------------

  //              Dimer HF             //
    Molecular point group: c1
  Charge       = 0
  Multiplicity = 1
  Basis Set: AUG-CC-PVDZ
    Blend: AUG-CC-PVDZ
  Basis Set: (AUG-CC-PVDZ AUX)
    Blend: AUG-CC-PVDZ-JKFIT
  @DF-RHF Final Energy:  -455.68817049548966
    Total Energy =                       -455.6881704954896577
  //            Monomer A HF           //
    Molecular point group: c1
  Multiplicity = 1
  Basis Set: AUG-CC-PVDZ
    Blend: AUG-CC-PVDZ
  Basis Set: (AUG-CC-PVDZ AUX)
    Blend: AUG-CC-PVDZ-JKFIT
  @DF-RHF Final Energy:  -227.84408589642416
    Total Energy =                       -227.8440858964241613
  //            Monomer B HF           //
    Molecular point group: c1

    Geometry (in Bohr), charge = 0, multiplicity = 1:

       Center              X                  Y                   Z               Mass
    ------------   -----------------  -----------------  -----------------  -----------------
      Gh(O)          -5.531022370000     2.939402900000     1.977626240000    15.994914619570
      Gh(O)          -2.407088860000     0.908177340000     0.049059090000    15.994914619570
      Gh(H)          -0.503048870000     1.375792050000     4.638809080000     1.007825032230
      Gh(H)           0.000000000000     4.251042850000     3.090722380000     1.007825032230
      Gh(H)          -2.389482150000     4.019167790000     5.401950410000     1.007825032230
      Gh(H)          -3.747714110000     0.471479300000    -1.215575120000     1.007825032230
      Gh(C)          -1.418597820000     2.985005000000     3.844051900000    12.000000000000
      Gh(C)          -3.322637810000     2.286288140000     1.912214130000    12.000000000000
         O            7.045199480000   -14.378572770000   -30.728430730000    15.994914619570
         O           10.169132990000   -12.347347200000   -32.656997890000    15.994914619570
         H           12.073172980000   -12.814961910000   -28.067247890000     1.007825032230
         H           12.576221850000   -15.690212720000   -29.615334590000     1.007825032230
         H           10.186739700000   -15.458337650000   -27.304106560000     1.007825032230
         H            8.828507740000   -11.910649160000   -33.921632090000     1.007825032230
         C           11.157624030000   -14.424174860000   -28.862005080000    12.000000000000
         C            9.253584040000   -13.725458000000   -30.793842840000    12.000000000000

  Charge       = 0
  Multiplicity = 1
  Basis Set: AUG-CC-PVDZ
    Blend: AUG-CC-PVDZ
  Basis Set: (AUG-CC-PVDZ AUX)
    Blend: AUG-CC-PVDZ-JKFIT

    Orbital Energies [Eh]
    ---------------------

    Doubly Occupied:

       1A    -20.629476     2A    -20.552804     3A    -11.396108
       4A    -11.250979     5A     -1.475853     6A     -1.357486
       7A     -1.032999     8A     -0.837930     9A     -0.703065
      10A     -0.688465    11A     -0.657749    12A     -0.576538
      13A     -0.569697    14A     -0.561403    15A     -0.475343
      16A     -0.452434

  @DF-RHF Final Energy:  -227.84408589505995

   => Energetics <=

    Nuclear Repulsion Energy =            121.7484301181825828
    One-Electron Energy =                -552.7483712519907613
    Two-Electron Energy =                 203.1558552387482450
    Total Energy =                       -227.8440858950599477

  Dipole Moment: [D]
     X:     2.1048      Y:     0.7191      Z:    -0.2116     Total:     2.2342

    SAPT Results
  --------------------------------------------------------------------------------------------------------
    Electrostatics                  0.00132460 [mEh]       0.00083120 [kcal/mol]       0.00347774 [kJ/mol]
      Elst10,r                      0.00132460 [mEh]       0.00083120 [kcal/mol]       0.00347774 [kJ/mol]

    Exchange                       -0.00000000 [mEh]      -0.00000000 [kcal/mol]      -0.00000000 [kJ/mol]
      Exch10                       -0.00000000 [mEh]      -0.00000000 [kcal/mol]      -0.00000000 [kJ/mol]
      Exch10(S^2)                  -0.00000000 [mEh]      -0.00000000 [kcal/mol]      -0.00000000 [kJ/mol]

    Induction                      -0.00002861 [mEh]      -0.00001795 [kcal/mol]      -0.00007511 [kJ/mol]
      Ind20,r                      -0.00001092 [mEh]      -0.00000685 [kcal/mol]      -0.00002867 [kJ/mol]
      Exch-Ind20,r                  0.00000000 [mEh]       0.00000000 [kcal/mol]       0.00000000 [kJ/mol]
      delta HF,r (2)               -0.00001769 [mEh]      -0.00001110 [kcal/mol]      -0.00004644 [kJ/mol]

    Dispersion                     -0.00017181 [mEh]      -0.00010781 [kcal/mol]      -0.00045108 [kJ/mol]
      Disp20                       -0.00017181 [mEh]      -0.00010781 [kcal/mol]      -0.00045108 [kJ/mol]
      Exch-Disp20                   0.00000000 [mEh]       0.00000000 [kcal/mol]       0.00000000 [kJ/mol]
      Disp20 (SS)                  -0.00008590 [mEh]      -0.00005391 [kcal/mol]      -0.00022554 [kJ/mol]
      Disp20 (OS)                  -0.00008590 [mEh]      -0.00005391 [kcal/mol]      -0.00022554 [kJ/mol]
      Exch-Disp20 (SS)              0.00000000 [mEh]       0.00000000 [kcal/mol]       0.00000000 [kJ/mol]
      Exch-Disp20 (OS)              0.00000000 [mEh]       0.00000000 [kcal/mol]       0.00000000 [kJ/mol]

  Total HF                          0.00129599 [mEh]       0.00081325 [kcal/mol]       0.00340263 [kJ/mol]
  Total SAPT0                       0.00112419 [mEh]       0.00070544 [kcal/mol]       0.00295155 [kJ/mol]

  Special recipe for scaled SAPT0 (see Manual):
    Electrostatics sSAPT0           0.00132460 [mEh]       0.00083120 [kcal/mol]       0.00347774 [kJ/mol]
    Exchange sSAPT0                -0.00000000 [mEh]      -0.00000000 [kcal/mol]      -0.00000000 [kJ/mol]
    Induction sSAPT0               -0.00002861 [mEh]      -0.00001795 [kcal/mol]      -0.00007511 [kJ/mol]
    Dispersion sSAPT0              -0.00017181 [mEh]      -0.00010781 [kcal/mol]      -0.00045108 [kJ/mol]
  Total sSAPT0                      0.00112419 [mEh]       0.00070544 [kcal/mol]       0.00295155 [kJ/mol]
  --------------------------------------------------------------------------------------------------------

*** Psi4 exiting successfully. Buy a developer a beer!
