                               Psi4 1.4rc3

  ==> Input File <==

--------------------------------------------------------------------------
# PSI4 file produced by CrystaLattE

# Generated from:               acetic_acid.xyz
# Psithon input for N-mer:      2mer-0+5
# Number of atoms per monomer:  [8, 8]
# Number of replicas:           2
# COM priority:                 1.886350351073e-03
# Minimum COM separations:      4.283
# Separation priority:          3.295058310049e-02
# Minimum monomer separations:  1.651
# Cutoff priority:              1.056373437853e-02
# Nuclear repulsion energy:     371.94162683361077

memory 7 GB

molecule Dimer_0_5 {
  O           -5.53102237       2.93940290       1.97762624
  O           -2.40708886       0.90817734       0.04905909
  H           -0.50304887       1.37579205       4.63880908
  H            0.00000000       4.25104285       3.09072238
  H           -2.38948215       4.01916779       5.40195041
  H           -3.74771411       0.47147930      -1.21557512
  C           -1.41859782       2.98500500       3.84405190
  C           -3.32263781       2.28628814       1.91221413
--
  O           -5.38513820      -0.92518151      -3.47338325
  O           -8.50907170      -2.95640708      -5.40195041
  H          -10.41311169      -2.48879236      -0.81220041
  H          -10.91616057       0.38645844      -2.36028711
  H           -8.52667842       0.15458338      -0.04905909
  H           -7.16844646      -3.39310511      -6.66658461
  C           -9.49756274      -0.87957941      -1.60695760
  C           -7.59352275      -1.57829627      -3.53879536
units = au
no_com
no_reorient
}

set {
  e_convergence 10
  d_convergence 10
  scf_type df
  mp2_type df
  cc_type df
  freeze_core true
}

energy('sapt0/aug-cc-pvdz')

--------------------------------------------------------------------------

  //              Dimer HF             //
    Molecular point group: c1
  Charge       = 0
  Multiplicity = 1
  Basis Set: AUG-CC-PVDZ
    Blend: AUG-CC-PVDZ
  Basis Set: (AUG-CC-PVDZ AUX)
    Blend: AUG-CC-PVDZ-JKFIT
  @DF-RHF Final Energy:  -455.70052588853144
    Total Energy =                       -455.7005258885315016
  //            Monomer A HF           //
    Molecular point group: c1
  Multiplicity = 1
  Basis Set: AUG-CC-PVDZ
    Blend: AUG-CC-PVDZ
  Basis Set: (AUG-CC-PVDZ AUX)
    Blend: AUG-CC-PVDZ-JKFIT
  @DF-RHF Final Energy:  -227.84447296601959
    Total Energy =                       -227.8444729660195947
  //            Monomer B HF           //
    Molecular point group: c1

    Geometry (in Bohr), charge = 0, multiplicity = 1:

       Center              X                  Y                   Z               Mass
    ------------   -----------------  -----------------  -----------------  -----------------
      Gh(O)          -5.531022370000     2.939402900000     1.977626240000    15.994914619570
      Gh(O)          -2.407088860000     0.908177340000     0.049059090000    15.994914619570
      Gh(H)          -0.503048870000     1.375792050000     4.638809080000     1.007825032230
      Gh(H)           0.000000000000     4.251042850000     3.090722380000     1.007825032230
      Gh(H)          -2.389482150000     4.019167790000     5.401950410000     1.007825032230
      Gh(H)          -3.747714110000     0.471479300000    -1.215575120000     1.007825032230
      Gh(C)          -1.418597820000     2.985005000000     3.844051900000    12.000000000000
      Gh(C)          -3.322637810000     2.286288140000     1.912214130000    12.000000000000
         O           -5.385138200000    -0.925181510000    -3.473383250000    15.994914619570
         O           -8.509071700000    -2.956407080000    -5.401950410000    15.994914619570
         H          -10.413111690000    -2.488792360000    -0.812200410000     1.007825032230
         H          -10.916160570000     0.386458440000    -2.360287110000     1.007825032230
         H           -8.526678420000     0.154583380000    -0.049059090000     1.007825032230
         H           -7.168446460000    -3.393105110000    -6.666584610000     1.007825032230
         C           -9.497562740000    -0.879579410000    -1.606957600000    12.000000000000
         C           -7.593522750000    -1.578296270000    -3.538795360000    12.000000000000

  Charge       = 0
  Multiplicity = 1
  Basis Set: AUG-CC-PVDZ
    Blend: AUG-CC-PVDZ
  Basis Set: (AUG-CC-PVDZ AUX)
    Blend: AUG-CC-PVDZ-JKFIT

    Orbital Energies [Eh]
    ---------------------

    Doubly Occupied:

       1A    -20.629519     2A    -20.553214     3A    -11.395897
       4A    -11.250860     5A     -1.475775     6A     -1.357393
       7A     -1.032949     8A     -0.837865     9A     -0.702984
      10A     -0.688383    11A     -0.657667    12A     -0.576470
      13A     -0.569636    14A     -0.561364    15A     -0.475191
      16A     -0.452382

  @DF-RHF Final Energy:  -227.84467732913996

   => Energetics <=

    Nuclear Repulsion Energy =            121.7484302710012543
    One-Electron Energy =                -552.7511193783033150
    Two-Electron Energy =                 203.1580117781620913
    Total Energy =                       -227.8446773291399552

  Dipole Moment: [D]
     X:    -2.0973      Y:    -0.7132      Z:    -0.2045     Total:     2.2247

    SAPT Results
  --------------------------------------------------------------------------------------------------------
    Electrostatics                -29.97864674 [mEh]     -18.81188484 [kcal/mol]     -78.70892618 [kJ/mol]
      Elst10,r                    -29.97864674 [mEh]     -18.81188484 [kcal/mol]     -78.70892618 [kJ/mol]

    Exchange                       32.18904179 [mEh]      20.19892868 [kcal/mol]      84.51231758 [kJ/mol]
      Exch10                       32.18904179 [mEh]      20.19892868 [kcal/mol]      84.51231758 [kJ/mol]
      Exch10(S^2)                  31.70855676 [mEh]      19.89741977 [kcal/mol]      83.25080431 [kJ/mol]

    Induction                     -13.58598842 [mEh]      -8.52533644 [kcal/mol]     -35.67000768 [kJ/mol]
      Ind20,r                     -15.92444442 [mEh]      -9.99273974 [kcal/mol]     -41.80962308 [kJ/mol]
      Exch-Ind20,r                  8.07934316 [mEh]       5.06986438 [kcal/mol]      21.21231255 [kJ/mol]
      delta HF,r (2)               -5.74088715 [mEh]      -3.60246108 [kcal/mol]     -15.07269715 [kJ/mol]

    Dispersion                     -8.72100685 [mEh]      -5.47251442 [kcal/mol]     -22.89700033 [kJ/mol]
      Disp20                      -10.58545201 [mEh]      -6.64247142 [kcal/mol]     -27.79210043 [kJ/mol]
      Exch-Disp20                   1.86444516 [mEh]       1.16995700 [kcal/mol]       4.89510010 [kJ/mol]
      Disp20 (SS)                  -5.29272601 [mEh]      -3.32123571 [kcal/mol]     -13.89605021 [kJ/mol]
      Disp20 (OS)                  -5.29272601 [mEh]      -3.32123571 [kcal/mol]     -13.89605021 [kJ/mol]
      Exch-Disp20 (SS)              1.11942915 [mEh]       0.70245240 [kcal/mol]       2.93906084 [kJ/mol]
      Exch-Disp20 (OS)              0.74501601 [mEh]       0.46750460 [kcal/mol]       1.95603926 [kJ/mol]

  Total HF                        -11.37559337 [mEh]      -7.13829261 [kcal/mol]     -29.86661628 [kJ/mol]
  Total SAPT0                     -20.09660022 [mEh]     -12.61080703 [kcal/mol]     -52.76361661 [kJ/mol]

  Special recipe for scaled SAPT0 (see Manual):
    Electrostatics sSAPT0         -29.97864674 [mEh]     -18.81188484 [kcal/mol]     -78.70892618 [kJ/mol]
    Exchange sSAPT0                32.18904179 [mEh]      20.19892868 [kcal/mol]      84.51231758 [kJ/mol]
    Induction sSAPT0              -13.21311192 [mEh]      -8.29135291 [kcal/mol]     -34.69102057 [kJ/mol]
    Dispersion sSAPT0              -8.63495929 [mEh]      -5.41851876 [kcal/mol]     -22.67108248 [kJ/mol]
  Total sSAPT0                    -19.63767616 [mEh]     -12.32282783 [kcal/mol]     -51.55871165 [kJ/mol]
  --------------------------------------------------------------------------------------------------------

*** Psi4 exiting successfully. Buy a developer a beer!
