                               Psi4 1.4rc3

  ==> Input File <==

--------------------------------------------------------------------------
# PSI4 file produced by CrystaLattE

# Generated from:               acetic_acid.xyz
# Psithon input for N-mer:      2mer-0+203
# Number of atoms per monomer:  [8, 8]
# Number of replicas:           2
# COM priority:                 3.979256903864e-05
# Minimum COM separations:      15.500
# Separation priority:          7.139154852511e-05
# Minimum monomer separations:  12.756
# Cutoff priority:              2.961618195040e-06
# Nuclear repulsion energy:     278.54720545511435

memory 7 GB

molecule Dimer_0_203 {
  O           -5.53102237       2.93940290       1.97762624
  O           -2.40708886       0.90817734       0.04905909
  H           -0.50304887       1.37579205       4.63880908
  H            0.00000000       4.25104285       3.09072238
  H           -2.38948215       4.01916779       5.40195041
  H           -3.74771411       0.47147930      -1.21557512
  C           -1.41859782       2.98500500       3.84405190
  C           -3.32263781       2.28628814       1.91221413
--
  O          -18.10724422      16.53810254     -19.82641174
  O          -14.98331071      18.56932810     -21.75497890
  H          -13.07927073      18.10171339     -17.16522890
  H          -12.57622185      15.22646259     -18.71331560
  H          -14.96570400      15.45833765     -16.40208757
  H          -16.32393596      19.00602614     -23.01961310
  C          -13.99481968      16.49250044     -17.95998608
  C          -15.89885966      17.19121730     -19.89182385
units = au
no_com
no_reorient
}

set {
  e_convergence 10
  d_convergence 10
  scf_type df
  mp2_type df
  cc_type df
  freeze_core true
}

energy('sapt0/aug-cc-pvdz')

--------------------------------------------------------------------------

  //              Dimer HF             //
    Molecular point group: c1
  Charge       = 0
  Multiplicity = 1
  Basis Set: AUG-CC-PVDZ
    Blend: AUG-CC-PVDZ
  Basis Set: (AUG-CC-PVDZ AUX)
    Blend: AUG-CC-PVDZ-JKFIT
  @DF-RHF Final Energy:  -455.68816234431733
    Total Energy =                       -455.6881623443173339
  //            Monomer A HF           //
    Molecular point group: c1
  Multiplicity = 1
  Basis Set: AUG-CC-PVDZ
    Blend: AUG-CC-PVDZ
  Basis Set: (AUG-CC-PVDZ AUX)
    Blend: AUG-CC-PVDZ-JKFIT
  @DF-RHF Final Energy:  -227.84408589644428
    Total Energy =                       -227.8440858964442839
  //            Monomer B HF           //
    Molecular point group: c1

    Geometry (in Bohr), charge = 0, multiplicity = 1:

       Center              X                  Y                   Z               Mass
    ------------   -----------------  -----------------  -----------------  -----------------
      Gh(O)          -5.531022370000     2.939402900000     1.977626240000    15.994914619570
      Gh(O)          -2.407088860000     0.908177340000     0.049059090000    15.994914619570
      Gh(H)          -0.503048870000     1.375792050000     4.638809080000     1.007825032230
      Gh(H)           0.000000000000     4.251042850000     3.090722380000     1.007825032230
      Gh(H)          -2.389482150000     4.019167790000     5.401950410000     1.007825032230
      Gh(H)          -3.747714110000     0.471479300000    -1.215575120000     1.007825032230
      Gh(C)          -1.418597820000     2.985005000000     3.844051900000    12.000000000000
      Gh(C)          -3.322637810000     2.286288140000     1.912214130000    12.000000000000
         O          -18.107244220000    16.538102540000   -19.826411740000    15.994914619570
         O          -14.983310710000    18.569328100000   -21.754978900000    15.994914619570
         H          -13.079270730000    18.101713390000   -17.165228900000     1.007825032230
         H          -12.576221850000    15.226462590000   -18.713315600000     1.007825032230
         H          -14.965704000000    15.458337650000   -16.402087570000     1.007825032230
         H          -16.323935960000    19.006026140000   -23.019613100000     1.007825032230
         C          -13.994819680000    16.492500440000   -17.959986080000    12.000000000000
         C          -15.898859660000    17.191217300000   -19.891823850000    12.000000000000

  Charge       = 0
  Multiplicity = 1
  Basis Set: AUG-CC-PVDZ
    Blend: AUG-CC-PVDZ
  Basis Set: (AUG-CC-PVDZ AUX)
    Blend: AUG-CC-PVDZ-JKFIT

    Orbital Energies [Eh]
    ---------------------

    Doubly Occupied:

       1A    -20.629476     2A    -20.552804     3A    -11.396108
       4A    -11.250979     5A     -1.475853     6A     -1.357486
       7A     -1.032999     8A     -0.837930     9A     -0.703065
      10A     -0.688465    11A     -0.657749    12A     -0.576538
      13A     -0.569697    14A     -0.561403    15A     -0.475343
      16A     -0.452434

  @DF-RHF Final Energy:  -227.84408589376142

   => Energetics <=

    Nuclear Repulsion Energy =            121.7484301851179112
    One-Electron Energy =                -552.7483713736640993
    Two-Electron Energy =                 203.1558552947847716
    Total Energy =                       -227.8440858937614166

  Dipole Moment: [D]
     X:     2.1048      Y:     0.7191      Z:    -0.2116     Total:     2.2342

    SAPT Results
  --------------------------------------------------------------------------------------------------------
    Electrostatics                  0.00954786 [mEh]       0.00599137 [kcal/mol]       0.02506790 [kJ/mol]
      Elst10,r                      0.00954786 [mEh]       0.00599137 [kcal/mol]       0.02506790 [kJ/mol]

    Exchange                       -0.00000000 [mEh]      -0.00000000 [kcal/mol]      -0.00000000 [kJ/mol]
      Exch10                       -0.00000000 [mEh]      -0.00000000 [kcal/mol]      -0.00000000 [kJ/mol]
      Exch10(S^2)                  -0.00000000 [mEh]      -0.00000000 [kcal/mol]      -0.00000000 [kJ/mol]

    Induction                      -0.00010197 [mEh]      -0.00006399 [kcal/mol]      -0.00026772 [kJ/mol]
      Ind20,r                      -0.00008040 [mEh]      -0.00005045 [kcal/mol]      -0.00021109 [kJ/mol]
      Exch-Ind20,r                  0.00000000 [mEh]       0.00000000 [kcal/mol]       0.00000000 [kJ/mol]
      delta HF,r (2)               -0.00002157 [mEh]      -0.00001353 [kcal/mol]      -0.00005663 [kJ/mol]

    Dispersion                     -0.00101630 [mEh]      -0.00063773 [kcal/mol]      -0.00266828 [kJ/mol]
      Disp20                       -0.00101630 [mEh]      -0.00063773 [kcal/mol]      -0.00266828 [kJ/mol]
      Exch-Disp20                   0.00000000 [mEh]       0.00000000 [kcal/mol]       0.00000000 [kJ/mol]
      Disp20 (SS)                  -0.00050815 [mEh]      -0.00031887 [kcal/mol]      -0.00133414 [kJ/mol]
      Disp20 (OS)                  -0.00050815 [mEh]      -0.00031887 [kcal/mol]      -0.00133414 [kJ/mol]
      Exch-Disp20 (SS)              0.00000000 [mEh]       0.00000000 [kcal/mol]       0.00000000 [kJ/mol]
      Exch-Disp20 (OS)              0.00000000 [mEh]       0.00000000 [kcal/mol]       0.00000000 [kJ/mol]

  Total HF                          0.00944589 [mEh]       0.00592738 [kcal/mol]       0.02480018 [kJ/mol]
  Total SAPT0                       0.00842959 [mEh]       0.00528965 [kcal/mol]       0.02213189 [kJ/mol]

  Special recipe for scaled SAPT0 (see Manual):
    Electrostatics sSAPT0           0.00954786 [mEh]       0.00599137 [kcal/mol]       0.02506790 [kJ/mol]
    Exchange sSAPT0                -0.00000000 [mEh]      -0.00000000 [kcal/mol]      -0.00000000 [kJ/mol]
    Induction sSAPT0               -0.00010197 [mEh]      -0.00006399 [kcal/mol]      -0.00026772 [kJ/mol]
    Dispersion sSAPT0              -0.00101630 [mEh]      -0.00063773 [kcal/mol]      -0.00266828 [kJ/mol]
  Total sSAPT0                      0.00842959 [mEh]       0.00528965 [kcal/mol]       0.02213189 [kJ/mol]
  --------------------------------------------------------------------------------------------------------

*** Psi4 exiting successfully. Buy a developer a beer!
