                               Psi4 1.4rc3

  ==> Input File <==

--------------------------------------------------------------------------
# PSI4 file produced by CrystaLattE

# Generated from:               acetic_acid.xyz
# Psithon input for N-mer:      2mer-0+318
# Number of atoms per monomer:  [8, 8]
# Number of replicas:           2
# COM priority:                 2.235052636981e-05
# Minimum COM separations:      18.786
# Separation priority:          3.163533985970e-05
# Minimum monomer separations:  16.732
# Cutoff priority:              1.000529748540e-06
# Nuclear repulsion energy:     272.2780820401201

memory 7 GB

molecule Dimer_0_318 {
  O           -5.53102237       2.93940290       1.97762624
  O           -2.40708886       0.90817734       0.04905909
  H           -0.50304887       1.37579205       4.63880908
  H            0.00000000       4.25104285       3.09072238
  H           -2.38948215       4.01916779       5.40195041
  H           -3.74771411       0.47147930      -1.21557512
  C           -1.41859782       2.98500500       3.84405190
  C           -3.32263781       2.28628814       1.91221413
--
  O           -5.38513820     -31.84185681      -3.47338325
  O           -8.50907170     -33.87308238      -5.40195041
  H          -10.41311169     -33.40546766      -0.81220041
  H          -10.91616057     -30.53021686      -2.36028711
  H           -8.52667842     -30.76209193      -0.04905909
  H           -7.16844646     -34.30978042      -6.66658461
  C           -9.49756274     -31.79625472      -1.60695760
  C           -7.59352275     -32.49497158      -3.53879536
units = au
no_com
no_reorient
}

set {
  e_convergence 10
  d_convergence 10
  scf_type df
  mp2_type df
  cc_type df
  freeze_core true
}

energy('sapt0/aug-cc-pvdz')

--------------------------------------------------------------------------

  //              Dimer HF             //
    Molecular point group: c1
  Charge       = 0
  Multiplicity = 1
  Basis Set: AUG-CC-PVDZ
    Blend: AUG-CC-PVDZ
  Basis Set: (AUG-CC-PVDZ AUX)
    Blend: AUG-CC-PVDZ-JKFIT
  @DF-RHF Final Energy:  -455.68819135906125
    Total Energy =                       -455.6881913590612498
  //            Monomer A HF           //
    Molecular point group: c1
  Multiplicity = 1
  Basis Set: AUG-CC-PVDZ
    Blend: AUG-CC-PVDZ
  Basis Set: (AUG-CC-PVDZ AUX)
    Blend: AUG-CC-PVDZ-JKFIT
  @DF-RHF Final Energy:  -227.84408589589890
    Total Energy =                       -227.8440858958988997
  //            Monomer B HF           //
    Molecular point group: c1

    Geometry (in Bohr), charge = 0, multiplicity = 1:

       Center              X                  Y                   Z               Mass
    ------------   -----------------  -----------------  -----------------  -----------------
      Gh(O)          -5.531022370000     2.939402900000     1.977626240000    15.994914619570
      Gh(O)          -2.407088860000     0.908177340000     0.049059090000    15.994914619570
      Gh(H)          -0.503048870000     1.375792050000     4.638809080000     1.007825032230
      Gh(H)           0.000000000000     4.251042850000     3.090722380000     1.007825032230
      Gh(H)          -2.389482150000     4.019167790000     5.401950410000     1.007825032230
      Gh(H)          -3.747714110000     0.471479300000    -1.215575120000     1.007825032230
      Gh(C)          -1.418597820000     2.985005000000     3.844051900000    12.000000000000
      Gh(C)          -3.322637810000     2.286288140000     1.912214130000    12.000000000000
         O           -5.385138200000   -31.841856810000    -3.473383250000    15.994914619570
         O           -8.509071700000   -33.873082380000    -5.401950410000    15.994914619570
         H          -10.413111690000   -33.405467660000    -0.812200410000     1.007825032230
         H          -10.916160570000   -30.530216860000    -2.360287110000     1.007825032230
         H           -8.526678420000   -30.762091930000    -0.049059090000     1.007825032230
         H           -7.168446460000   -34.309780420000    -6.666584610000     1.007825032230
         C           -9.497562740000   -31.796254720000    -1.606957600000    12.000000000000
         C           -7.593522750000   -32.494971580000    -3.538795360000    12.000000000000

  Charge       = 0
  Multiplicity = 1
  Basis Set: AUG-CC-PVDZ
    Blend: AUG-CC-PVDZ
  Basis Set: (AUG-CC-PVDZ AUX)
    Blend: AUG-CC-PVDZ-JKFIT

    Orbital Energies [Eh]
    ---------------------

    Doubly Occupied:

       1A    -20.629476     2A    -20.552804     3A    -11.396108
       4A    -11.250979     5A     -1.475853     6A     -1.357486
       7A     -1.032999     8A     -0.837930     9A     -0.703065
      10A     -0.688465    11A     -0.657749    12A     -0.576538
      13A     -0.569697    14A     -0.561403    15A     -0.475343
      16A     -0.452434

  @DF-RHF Final Energy:  -227.84408589550662

   => Energetics <=

    Nuclear Repulsion Energy =            121.7484302966428942
    One-Electron Energy =                -552.7483715964765452
    Two-Electron Energy =                 203.1558554043270419
    Total Energy =                       -227.8440858955066233

  Dipole Moment: [D]
     X:    -2.1048      Y:    -0.7191      Z:    -0.2116     Total:     2.2342

    SAPT Results
  --------------------------------------------------------------------------------------------------------
    Electrostatics                 -0.01952958 [mEh]      -0.01225500 [kcal/mol]      -0.05127490 [kJ/mol]
      Elst10,r                     -0.01952958 [mEh]      -0.01225500 [kcal/mol]      -0.05127490 [kJ/mol]

    Exchange                       -0.00000000 [mEh]      -0.00000000 [kcal/mol]      -0.00000000 [kJ/mol]
      Exch10                       -0.00000000 [mEh]      -0.00000000 [kcal/mol]      -0.00000000 [kJ/mol]
      Exch10(S^2)                  -0.00000000 [mEh]      -0.00000000 [kcal/mol]      -0.00000000 [kJ/mol]

    Induction                      -0.00003808 [mEh]      -0.00002389 [kcal/mol]      -0.00009997 [kJ/mol]
      Ind20,r                      -0.00002007 [mEh]      -0.00001259 [kcal/mol]      -0.00005269 [kJ/mol]
      Exch-Ind20,r                  0.00000000 [mEh]       0.00000000 [kcal/mol]       0.00000000 [kJ/mol]
      delta HF,r (2)               -0.00001801 [mEh]      -0.00001130 [kcal/mol]      -0.00004728 [kJ/mol]

    Dispersion                     -0.00026791 [mEh]      -0.00016812 [kcal/mol]      -0.00070340 [kJ/mol]
      Disp20                       -0.00026791 [mEh]      -0.00016812 [kcal/mol]      -0.00070340 [kJ/mol]
      Exch-Disp20                   0.00000000 [mEh]       0.00000000 [kcal/mol]       0.00000000 [kJ/mol]
      Disp20 (SS)                  -0.00013396 [mEh]      -0.00008406 [kcal/mol]      -0.00035170 [kJ/mol]
      Disp20 (OS)                  -0.00013396 [mEh]      -0.00008406 [kcal/mol]      -0.00035170 [kJ/mol]
      Exch-Disp20 (SS)              0.00000000 [mEh]       0.00000000 [kcal/mol]       0.00000000 [kJ/mol]
      Exch-Disp20 (OS)              0.00000000 [mEh]       0.00000000 [kcal/mol]       0.00000000 [kJ/mol]

  Total HF                         -0.01956766 [mEh]      -0.01227889 [kcal/mol]      -0.05137487 [kJ/mol]
  Total SAPT0                      -0.01983557 [mEh]      -0.01244701 [kcal/mol]      -0.05207827 [kJ/mol]

  Special recipe for scaled SAPT0 (see Manual):
    Electrostatics sSAPT0          -0.01952958 [mEh]      -0.01225500 [kcal/mol]      -0.05127490 [kJ/mol]
    Exchange sSAPT0                -0.00000000 [mEh]      -0.00000000 [kcal/mol]      -0.00000000 [kJ/mol]
    Induction sSAPT0               -0.00003808 [mEh]      -0.00002389 [kcal/mol]      -0.00009997 [kJ/mol]
    Dispersion sSAPT0              -0.00026791 [mEh]      -0.00016812 [kcal/mol]      -0.00070340 [kJ/mol]
  Total sSAPT0                     -0.01983557 [mEh]      -0.01244701 [kcal/mol]      -0.05207827 [kJ/mol]
  --------------------------------------------------------------------------------------------------------

*** Psi4 exiting successfully. Buy a developer a beer!
