                               Psi4 1.4rc3

  ==> Input File <==

--------------------------------------------------------------------------
# PSI4 file produced by CrystaLattE

# Generated from:               acetic_acid.xyz
# Psithon input for N-mer:      2mer-0+214
# Number of atoms per monomer:  [8, 8]
# Number of replicas:           2
# COM priority:                 2.462181961362e-05
# Minimum COM separations:      18.190
# Separation priority:          4.239306710838e-05
# Minimum monomer separations:  15.176
# Cutoff priority:              1.478177037339e-06
# Nuclear repulsion energy:     273.4095921754406

memory 7 GB

molecule Dimer_0_214 {
  O           -5.53102237       2.93940290       1.97762624
  O           -2.40708886       0.90817734       0.04905909
  H           -0.50304887       1.37579205       4.63880908
  H            0.00000000       4.25104285       3.09072238
  H           -2.38948215       4.01916779       5.40195041
  H           -3.74771411       0.47147930      -1.21557512
  C           -1.41859782       2.98500500       3.84405190
  C           -3.32263781       2.28628814       1.91221413
--
  O           19.76730551       6.80398732     -25.27742123
  O           16.64337200       4.77276175     -27.20598839
  H           14.73933201       5.24037646     -22.61623840
  H           14.23628314       8.11562727     -24.16432509
  H           16.62576529       7.88375220     -21.85309707
  H           17.98399725       4.33606371     -28.47062259
  C           15.65488096       6.84958941     -23.41099558
  C           17.55892095       6.15087255     -25.34283335
units = au
no_com
no_reorient
}

set {
  e_convergence 10
  d_convergence 10
  scf_type df
  mp2_type df
  cc_type df
  freeze_core true
}

energy('sapt0/aug-cc-pvdz')

--------------------------------------------------------------------------

  //              Dimer HF             //
    Molecular point group: c1
  Charge       = 0
  Multiplicity = 1
  Basis Set: AUG-CC-PVDZ
    Blend: AUG-CC-PVDZ
  Basis Set: (AUG-CC-PVDZ AUX)
    Blend: AUG-CC-PVDZ-JKFIT
  @DF-RHF Final Energy:  -455.68816426333592
    Total Energy =                       -455.6881642633359206
  //            Monomer A HF           //
    Molecular point group: c1
  Multiplicity = 1
  Basis Set: AUG-CC-PVDZ
    Blend: AUG-CC-PVDZ
  Basis Set: (AUG-CC-PVDZ AUX)
    Blend: AUG-CC-PVDZ-JKFIT
  @DF-RHF Final Energy:  -227.84408589512978
    Total Energy =                       -227.8440858951297798
  //            Monomer B HF           //
    Molecular point group: c1

    Geometry (in Bohr), charge = 0, multiplicity = 1:

       Center              X                  Y                   Z               Mass
    ------------   -----------------  -----------------  -----------------  -----------------
      Gh(O)          -5.531022370000     2.939402900000     1.977626240000    15.994914619570
      Gh(O)          -2.407088860000     0.908177340000     0.049059090000    15.994914619570
      Gh(H)          -0.503048870000     1.375792050000     4.638809080000     1.007825032230
      Gh(H)           0.000000000000     4.251042850000     3.090722380000     1.007825032230
      Gh(H)          -2.389482150000     4.019167790000     5.401950410000     1.007825032230
      Gh(H)          -3.747714110000     0.471479300000    -1.215575120000     1.007825032230
      Gh(C)          -1.418597820000     2.985005000000     3.844051900000    12.000000000000
      Gh(C)          -3.322637810000     2.286288140000     1.912214130000    12.000000000000
         O           19.767305510000     6.803987320000   -25.277421230000    15.994914619570
         O           16.643372000000     4.772761750000   -27.205988390000    15.994914619570
         H           14.739332010000     5.240376460000   -22.616238400000     1.007825032230
         H           14.236283140000     8.115627270000   -24.164325090000     1.007825032230
         H           16.625765290000     7.883752200000   -21.853097070000     1.007825032230
         H           17.983997250000     4.336063710000   -28.470622590000     1.007825032230
         C           15.654880960000     6.849589410000   -23.410995580000    12.000000000000
         C           17.558920950000     6.150872550000   -25.342833350000    12.000000000000

  Charge       = 0
  Multiplicity = 1
  Basis Set: AUG-CC-PVDZ
    Blend: AUG-CC-PVDZ
  Basis Set: (AUG-CC-PVDZ AUX)
    Blend: AUG-CC-PVDZ-JKFIT

    Orbital Energies [Eh]
    ---------------------

    Doubly Occupied:

       1A    -20.629476     2A    -20.552804     3A    -11.396108
       4A    -11.250979     5A     -1.475853     6A     -1.357486
       7A     -1.032999     8A     -0.837930     9A     -0.703065
      10A     -0.688465    11A     -0.657749    12A     -0.576538
      13A     -0.569697    14A     -0.561403    15A     -0.475343
      16A     -0.452434

  @DF-RHF Final Energy:  -227.84408589348283

   => Energetics <=

    Nuclear Repulsion Energy =            121.7484301701214093
    One-Electron Energy =                -552.7483713414176236
    Two-Electron Energy =                 203.1558552778133730
    Total Energy =                       -227.8440858934828270

  Dipole Moment: [D]
     X:    -2.1048      Y:    -0.7191      Z:    -0.2116     Total:     2.2342

    SAPT Results
  --------------------------------------------------------------------------------------------------------
    Electrostatics                  0.00757363 [mEh]       0.00475253 [kcal/mol]       0.01988458 [kJ/mol]
      Elst10,r                      0.00757363 [mEh]       0.00475253 [kcal/mol]       0.01988458 [kJ/mol]

    Exchange                       -0.00000000 [mEh]      -0.00000000 [kcal/mol]      -0.00000000 [kJ/mol]
      Exch10                       -0.00000000 [mEh]      -0.00000000 [kcal/mol]      -0.00000000 [kJ/mol]
      Exch10(S^2)                  -0.00000000 [mEh]      -0.00000000 [kcal/mol]      -0.00000000 [kJ/mol]

    Induction                      -0.00004836 [mEh]      -0.00003035 [kcal/mol]      -0.00012696 [kJ/mol]
      Ind20,r                      -0.00002522 [mEh]      -0.00001582 [kcal/mol]      -0.00006621 [kJ/mol]
      Exch-Ind20,r                  0.00000000 [mEh]       0.00000000 [kcal/mol]       0.00000000 [kJ/mol]
      delta HF,r (2)               -0.00002314 [mEh]      -0.00001452 [kcal/mol]      -0.00006075 [kJ/mol]

    Dispersion                     -0.00039329 [mEh]      -0.00024679 [kcal/mol]      -0.00103258 [kJ/mol]
      Disp20                       -0.00039329 [mEh]      -0.00024679 [kcal/mol]      -0.00103258 [kJ/mol]
      Exch-Disp20                   0.00000000 [mEh]       0.00000000 [kcal/mol]       0.00000000 [kJ/mol]
      Disp20 (SS)                  -0.00019664 [mEh]      -0.00012340 [kcal/mol]      -0.00051629 [kJ/mol]
      Disp20 (OS)                  -0.00019664 [mEh]      -0.00012340 [kcal/mol]      -0.00051629 [kJ/mol]
      Exch-Disp20 (SS)              0.00000000 [mEh]       0.00000000 [kcal/mol]       0.00000000 [kJ/mol]
      Exch-Disp20 (OS)              0.00000000 [mEh]       0.00000000 [kcal/mol]       0.00000000 [kJ/mol]

  Total HF                          0.00752528 [mEh]       0.00472218 [kcal/mol]       0.01975761 [kJ/mol]
  Total SAPT0                       0.00713199 [mEh]       0.00447539 [kcal/mol]       0.01872503 [kJ/mol]

  Special recipe for scaled SAPT0 (see Manual):
    Electrostatics sSAPT0           0.00757363 [mEh]       0.00475253 [kcal/mol]       0.01988458 [kJ/mol]
    Exchange sSAPT0                -0.00000000 [mEh]      -0.00000000 [kcal/mol]      -0.00000000 [kJ/mol]
    Induction sSAPT0               -0.00004836 [mEh]      -0.00003035 [kcal/mol]      -0.00012696 [kJ/mol]
    Dispersion sSAPT0              -0.00039329 [mEh]      -0.00024679 [kcal/mol]      -0.00103258 [kJ/mol]
  Total sSAPT0                      0.00713199 [mEh]       0.00447539 [kcal/mol]       0.01872503 [kJ/mol]
  --------------------------------------------------------------------------------------------------------

*** Psi4 exiting successfully. Buy a developer a beer!
