                               Psi4 1.4rc3

  ==> Input File <==

--------------------------------------------------------------------------
# PSI4 file produced by CrystaLattE

# Generated from:               acetic_acid.xyz
# Psithon input for N-mer:      2mer-0+154
# Number of atoms per monomer:  [8, 8]
# Number of replicas:           2
# COM priority:                 2.878950451902e-05
# Minimum COM separations:      17.266
# Separation priority:          5.290778041555e-05
# Minimum monomer separations:  14.096
# Cutoff priority:              1.986214081523e-06
# Nuclear repulsion energy:     275.06829329280185

memory 7 GB

molecule Dimer_0_154 {
  O           -5.53102237       2.93940290       1.97762624
  O           -2.40708886       0.90817734       0.04905909
  H           -0.50304887       1.37579205       4.63880908
  H            0.00000000       4.25104285       3.09072238
  H           -2.38948215       4.01916779       5.40195041
  H           -3.74771411       0.47147930      -1.21557512
  C           -1.41859782       2.98500500       3.84405190
  C           -3.32263781       2.28628814       1.91221413
--
  O           19.76730551     -16.38351916     -14.37540224
  O           16.64337200     -18.41474473     -16.30396940
  H           14.73933201     -17.94713001     -11.71421941
  H           14.23628314     -15.07187921     -13.26230610
  H           16.62576529     -15.30375427     -10.95107808
  H           17.98399725     -18.85144277     -17.56860360
  C           15.65488096     -16.33791706     -12.50897659
  C           17.55892095     -17.03663393     -14.44081435
units = au
no_com
no_reorient
}

set {
  e_convergence 10
  d_convergence 10
  scf_type df
  mp2_type df
  cc_type df
  freeze_core true
}

energy('sapt0/aug-cc-pvdz')

--------------------------------------------------------------------------

  //              Dimer HF             //
    Molecular point group: c1
  Charge       = 0
  Multiplicity = 1
  Basis Set: AUG-CC-PVDZ
    Blend: AUG-CC-PVDZ
  Basis Set: (AUG-CC-PVDZ AUX)
    Blend: AUG-CC-PVDZ-JKFIT
  @DF-RHF Final Energy:  -455.68816140938060
    Total Energy =                       -455.6881614093805979
  //            Monomer A HF           //
    Molecular point group: c1
  Multiplicity = 1
  Basis Set: AUG-CC-PVDZ
    Blend: AUG-CC-PVDZ
  Basis Set: (AUG-CC-PVDZ AUX)
    Blend: AUG-CC-PVDZ-JKFIT
  @DF-RHF Final Energy:  -227.84408589577194
    Total Energy =                       -227.8440858957719399
  //            Monomer B HF           //
    Molecular point group: c1

    Geometry (in Bohr), charge = 0, multiplicity = 1:

       Center              X                  Y                   Z               Mass
    ------------   -----------------  -----------------  -----------------  -----------------
      Gh(O)          -5.531022370000     2.939402900000     1.977626240000    15.994914619570
      Gh(O)          -2.407088860000     0.908177340000     0.049059090000    15.994914619570
      Gh(H)          -0.503048870000     1.375792050000     4.638809080000     1.007825032230
      Gh(H)           0.000000000000     4.251042850000     3.090722380000     1.007825032230
      Gh(H)          -2.389482150000     4.019167790000     5.401950410000     1.007825032230
      Gh(H)          -3.747714110000     0.471479300000    -1.215575120000     1.007825032230
      Gh(C)          -1.418597820000     2.985005000000     3.844051900000    12.000000000000
      Gh(C)          -3.322637810000     2.286288140000     1.912214130000    12.000000000000
         O           19.767305510000   -16.383519160000   -14.375402240000    15.994914619570
         O           16.643372000000   -18.414744730000   -16.303969400000    15.994914619570
         H           14.739332010000   -17.947130010000   -11.714219410000     1.007825032230
         H           14.236283140000   -15.071879210000   -13.262306100000     1.007825032230
         H           16.625765290000   -15.303754270000   -10.951078080000     1.007825032230
         H           17.983997250000   -18.851442770000   -17.568603600000     1.007825032230
         C           15.654880960000   -16.337917060000   -12.508976590000    12.000000000000
         C           17.558920950000   -17.036633930000   -14.440814350000    12.000000000000

  Charge       = 0
  Multiplicity = 1
  Basis Set: AUG-CC-PVDZ
    Blend: AUG-CC-PVDZ
  Basis Set: (AUG-CC-PVDZ AUX)
    Blend: AUG-CC-PVDZ-JKFIT

    Orbital Energies [Eh]
    ---------------------

    Doubly Occupied:

       1A    -20.629476     2A    -20.552804     3A    -11.396108
       4A    -11.250979     5A     -1.475853     6A     -1.357486
       7A     -1.032999     8A     -0.837930     9A     -0.703065
      10A     -0.688465    11A     -0.657749    12A     -0.576538
      13A     -0.569697    14A     -0.561403    15A     -0.475343
      16A     -0.452434

  @DF-RHF Final Energy:  -227.84408589314671

   => Energetics <=

    Nuclear Repulsion Energy =            121.7484301330404435
    One-Electron Energy =                -552.7483712679995733
    Two-Electron Energy =                 203.1558552418124464
    Total Energy =                       -227.8440858931467119

  Dipole Moment: [D]
     X:    -2.1048      Y:    -0.7191      Z:    -0.2116     Total:     2.2342

    SAPT Results
  --------------------------------------------------------------------------------------------------------
    Electrostatics                  0.01043955 [mEh]       0.00655092 [kcal/mol]       0.02740904 [kJ/mol]
      Elst10,r                      0.01043955 [mEh]       0.00655092 [kcal/mol]       0.02740904 [kJ/mol]

    Exchange                        0.00000000 [mEh]       0.00000000 [kcal/mol]       0.00000000 [kJ/mol]
      Exch10                        0.00000000 [mEh]       0.00000000 [kcal/mol]       0.00000000 [kJ/mol]
      Exch10(S^2)                   0.00000000 [mEh]       0.00000000 [kcal/mol]       0.00000000 [kJ/mol]

    Induction                      -0.00006001 [mEh]      -0.00003766 [kcal/mol]      -0.00015756 [kJ/mol]
      Ind20,r                      -0.00003754 [mEh]      -0.00002356 [kcal/mol]      -0.00009856 [kJ/mol]
      Exch-Ind20,r                  0.00000000 [mEh]       0.00000000 [kcal/mol]       0.00000000 [kJ/mol]
      delta HF,r (2)               -0.00002247 [mEh]      -0.00001410 [kcal/mol]      -0.00005901 [kJ/mol]

    Dispersion                     -0.00057495 [mEh]      -0.00036079 [kcal/mol]      -0.00150954 [kJ/mol]
      Disp20                       -0.00057495 [mEh]      -0.00036079 [kcal/mol]      -0.00150954 [kJ/mol]
      Exch-Disp20                   0.00000000 [mEh]       0.00000000 [kcal/mol]       0.00000000 [kJ/mol]
      Disp20 (SS)                  -0.00028748 [mEh]      -0.00018039 [kcal/mol]      -0.00075477 [kJ/mol]
      Disp20 (OS)                  -0.00028748 [mEh]      -0.00018039 [kcal/mol]      -0.00075477 [kJ/mol]
      Exch-Disp20 (SS)              0.00000000 [mEh]       0.00000000 [kcal/mol]       0.00000000 [kJ/mol]
      Exch-Disp20 (OS)              0.00000000 [mEh]       0.00000000 [kcal/mol]       0.00000000 [kJ/mol]

  Total HF                          0.01037954 [mEh]       0.00651326 [kcal/mol]       0.02725147 [kJ/mol]
  Total SAPT0                       0.00980458 [mEh]       0.00615247 [kcal/mol]       0.02574193 [kJ/mol]

  Special recipe for scaled SAPT0 (see Manual):
    Electrostatics sSAPT0           0.01043955 [mEh]       0.00655092 [kcal/mol]       0.02740904 [kJ/mol]
    Exchange sSAPT0                 0.00000000 [mEh]       0.00000000 [kcal/mol]       0.00000000 [kJ/mol]
    Induction sSAPT0               -0.00006001 [mEh]      -0.00003766 [kcal/mol]      -0.00015756 [kJ/mol]
    Dispersion sSAPT0              -0.00057495 [mEh]      -0.00036079 [kcal/mol]      -0.00150954 [kJ/mol]
  Total sSAPT0                      0.00980458 [mEh]       0.00615247 [kcal/mol]       0.02574193 [kJ/mol]
  --------------------------------------------------------------------------------------------------------

*** Psi4 exiting successfully. Buy a developer a beer!
