                               Psi4 1.4rc3

  ==> Input File <==

--------------------------------------------------------------------------
# PSI4 file produced by CrystaLattE

# Generated from:               acetic_acid.xyz
# Psithon input for N-mer:      2mer-0+26
# Number of atoms per monomer:  [8, 8]
# Number of replicas:           2
# COM priority:                 3.974723506548e-04
# Minimum COM separations:      7.197
# Separation priority:          6.577274507690e-04
# Minimum monomer separations:  6.085
# Cutoff priority:              5.719981495289e-05
# Nuclear repulsion energy:     316.75496388765646

memory 7 GB

molecule Dimer_0_26 {
  O           -5.53102237       2.93940290       1.97762624
  O           -2.40708886       0.90817734       0.04905909
  H           -0.50304887       1.37579205       4.63880908
  H            0.00000000       4.25104285       3.09072238
  H           -2.38948215       4.01916779       5.40195041
  H           -3.74771411       0.47147930      -1.21557512
  C           -1.41859782       2.98500500       3.84405190
  C           -3.32263781       2.28628814       1.91221413
--
  O           -5.38513820      -8.65435033       7.42863574
  O           -8.50907170     -10.68557590       5.50006858
  H          -10.41311169     -10.21796119      10.08981858
  H          -10.91616057      -7.34271038       8.54173188
  H           -8.52667842      -7.57458545      10.85295990
  H           -7.16844646     -11.12227394       4.23543438
  C           -9.49756274      -8.60874824       9.29506139
  C           -7.59352275      -9.30746510       7.36322363
units = au
no_com
no_reorient
}

set {
  e_convergence 10
  d_convergence 10
  scf_type df
  mp2_type df
  cc_type df
  freeze_core true
}

energy('sapt0/aug-cc-pvdz')

--------------------------------------------------------------------------

  //              Dimer HF             //
    Molecular point group: c1
  Charge       = 0
  Multiplicity = 1
  Basis Set: AUG-CC-PVDZ
    Blend: AUG-CC-PVDZ
  Basis Set: (AUG-CC-PVDZ AUX)
    Blend: AUG-CC-PVDZ-JKFIT
  @DF-RHF Final Energy:  -455.68854957278779
    Total Energy =                       -455.6885495727877924
  //            Monomer A HF           //
    Molecular point group: c1
  Multiplicity = 1
  Basis Set: AUG-CC-PVDZ
    Blend: AUG-CC-PVDZ
  Basis Set: (AUG-CC-PVDZ AUX)
    Blend: AUG-CC-PVDZ-JKFIT
  @DF-RHF Final Energy:  -227.84409896680350
    Total Energy =                       -227.8440989668035002
  //            Monomer B HF           //
    Molecular point group: c1

    Geometry (in Bohr), charge = 0, multiplicity = 1:

       Center              X                  Y                   Z               Mass
    ------------   -----------------  -----------------  -----------------  -----------------
      Gh(O)          -5.531022370000     2.939402900000     1.977626240000    15.994914619570
      Gh(O)          -2.407088860000     0.908177340000     0.049059090000    15.994914619570
      Gh(H)          -0.503048870000     1.375792050000     4.638809080000     1.007825032230
      Gh(H)           0.000000000000     4.251042850000     3.090722380000     1.007825032230
      Gh(H)          -2.389482150000     4.019167790000     5.401950410000     1.007825032230
      Gh(H)          -3.747714110000     0.471479300000    -1.215575120000     1.007825032230
      Gh(C)          -1.418597820000     2.985005000000     3.844051900000    12.000000000000
      Gh(C)          -3.322637810000     2.286288140000     1.912214130000    12.000000000000
         O           -5.385138200000    -8.654350330000     7.428635740000    15.994914619570
         O           -8.509071700000   -10.685575900000     5.500068580000    15.994914619570
         H          -10.413111690000   -10.217961190000    10.089818580000     1.007825032230
         H          -10.916160570000    -7.342710380000     8.541731880000     1.007825032230
         H           -8.526678420000    -7.574585450000    10.852959900000     1.007825032230
         H           -7.168446460000   -11.122273940000     4.235434380000     1.007825032230
         C           -9.497562740000    -8.608748240000     9.295061390000    12.000000000000
         C           -7.593522750000    -9.307465100000     7.363223630000    12.000000000000

  Charge       = 0
  Multiplicity = 1
  Basis Set: AUG-CC-PVDZ
    Blend: AUG-CC-PVDZ
  Basis Set: (AUG-CC-PVDZ AUX)
    Blend: AUG-CC-PVDZ-JKFIT

    Orbital Energies [Eh]
    ---------------------

    Doubly Occupied:

       1A    -20.629481     2A    -20.552828     3A    -11.396115
       4A    -11.250979     5A     -1.475856     6A     -1.357490
       7A     -1.033003     8A     -0.837932     9A     -0.703068
      10A     -0.688467    11A     -0.657750    12A     -0.576540
      13A     -0.569698    14A     -0.561405    15A     -0.475349
      16A     -0.452438

  @DF-RHF Final Energy:  -227.84410847477278

   => Energetics <=

    Nuclear Repulsion Energy =            121.7484302822129933
    One-Electron Energy =                -552.7482807467522434
    Two-Electron Energy =                 203.1557419897664545
    Total Energy =                       -227.8441084747727814

  Dipole Moment: [D]
     X:    -2.1036      Y:    -0.7185      Z:    -0.2109     Total:     2.2329

    SAPT Results
  --------------------------------------------------------------------------------------------------------
    Electrostatics                 -0.33268477 [mEh]      -0.20876285 [kcal/mol]      -0.87346375 [kJ/mol]
      Elst10,r                     -0.33268477 [mEh]      -0.20876285 [kcal/mol]      -0.87346375 [kJ/mol]

    Exchange                       -0.00000144 [mEh]      -0.00000090 [kcal/mol]      -0.00000378 [kJ/mol]
      Exch10                       -0.00000144 [mEh]      -0.00000090 [kcal/mol]      -0.00000378 [kJ/mol]
      Exch10(S^2)                  -0.00000144 [mEh]      -0.00000090 [kcal/mol]      -0.00000378 [kJ/mol]

    Induction                      -0.00944500 [mEh]      -0.00592683 [kcal/mol]      -0.02479784 [kJ/mol]
      Ind20,r                      -0.00947058 [mEh]      -0.00594288 [kcal/mol]      -0.02486500 [kJ/mol]
      Exch-Ind20,r                  0.00001913 [mEh]       0.00001200 [kcal/mol]       0.00005022 [kJ/mol]
      delta HF,r (2)                0.00000645 [mEh]       0.00000405 [kcal/mol]       0.00001694 [kJ/mol]

    Dispersion                     -0.07449605 [mEh]      -0.04674698 [kcal/mol]      -0.19558935 [kJ/mol]
      Disp20                       -0.07450295 [mEh]      -0.04675131 [kcal/mol]      -0.19560747 [kJ/mol]
      Exch-Disp20                   0.00000690 [mEh]       0.00000433 [kcal/mol]       0.00001812 [kJ/mol]
      Disp20 (SS)                  -0.03725147 [mEh]      -0.02337565 [kcal/mol]      -0.09780373 [kJ/mol]
      Disp20 (OS)                  -0.03725147 [mEh]      -0.02337565 [kcal/mol]      -0.09780373 [kJ/mol]
      Exch-Disp20 (SS)              0.00000566 [mEh]       0.00000355 [kcal/mol]       0.00001487 [kJ/mol]
      Exch-Disp20 (OS)              0.00000124 [mEh]       0.00000078 [kcal/mol]       0.00000324 [kJ/mol]

  Total HF                         -0.34213121 [mEh]      -0.21469058 [kcal/mol]      -0.89826537 [kJ/mol]
  Total SAPT0                      -0.41662726 [mEh]      -0.26143755 [kcal/mol]      -1.09385472 [kJ/mol]

  Special recipe for scaled SAPT0 (see Manual):
    Electrostatics sSAPT0          -0.33268477 [mEh]      -0.20876285 [kcal/mol]      -0.87346375 [kJ/mol]
    Exchange sSAPT0                -0.00000144 [mEh]      -0.00000090 [kcal/mol]      -0.00000378 [kJ/mol]
    Induction sSAPT0               -0.00944500 [mEh]      -0.00592683 [kcal/mol]      -0.02479784 [kJ/mol]
    Dispersion sSAPT0              -0.07449605 [mEh]      -0.04674698 [kcal/mol]      -0.19558935 [kJ/mol]
  Total sSAPT0                     -0.41662726 [mEh]      -0.26143755 [kcal/mol]      -1.09385472 [kJ/mol]
  --------------------------------------------------------------------------------------------------------

*** Psi4 exiting successfully. Buy a developer a beer!
