                               Psi4 1.4rc3

  ==> Input File <==

--------------------------------------------------------------------------
# PSI4 file produced by CrystaLattE

# Generated from:               acetic_acid.xyz
# Psithon input for N-mer:      2mer-0+202
# Number of atoms per monomer:  [8, 8]
# Number of replicas:           2
# COM priority:                 2.450486465428e-05
# Minimum COM separations:      18.219
# Separation priority:          4.071605628288e-05
# Minimum monomer separations:  15.382
# Cutoff priority:              1.400729498453e-06
# Nuclear repulsion energy:     273.32841418442

memory 7 GB

molecule Dimer_0_202 {
  O           -5.53102237       2.93940290       1.97762624
  O           -2.40708886       0.90817734       0.04905909
  H           -0.50304887       1.37579205       4.63880908
  H            0.00000000       4.25104285       3.09072238
  H           -2.38948215       4.01916779       5.40195041
  H           -3.74771411       0.47147930      -1.21557512
  C           -1.41859782       2.98500500       3.84405190
  C           -3.32263781       2.28628814       1.91221413
--
  O           19.76730551     -24.11268799      -3.47338325
  O           16.64337200     -26.14391355      -5.40195041
  H           14.73933201     -25.67629884      -0.81220041
  H           14.23628314     -22.80104804      -2.36028711
  H           16.62576529     -23.03292310      -0.04905909
  H           17.98399725     -26.58061159      -6.66658461
  C           15.65488096     -24.06708589      -1.60695760
  C           17.55892095     -24.76580275      -3.53879536
units = au
no_com
no_reorient
}

set {
  e_convergence 10
  d_convergence 10
  scf_type df
  mp2_type df
  cc_type df
  freeze_core true
}

energy('sapt0/aug-cc-pvdz')

--------------------------------------------------------------------------

  //              Dimer HF             //
    Molecular point group: c1
  Charge       = 0
  Multiplicity = 1
  Basis Set: AUG-CC-PVDZ
    Blend: AUG-CC-PVDZ
  Basis Set: (AUG-CC-PVDZ AUX)
    Blend: AUG-CC-PVDZ-JKFIT
  @DF-RHF Final Energy:  -455.68816790015649
    Total Energy =                       -455.6881679001564862
  //            Monomer A HF           //
    Molecular point group: c1
  Multiplicity = 1
  Basis Set: AUG-CC-PVDZ
    Blend: AUG-CC-PVDZ
  Basis Set: (AUG-CC-PVDZ AUX)
    Blend: AUG-CC-PVDZ-JKFIT
  @DF-RHF Final Energy:  -227.84408589502317
    Total Energy =                       -227.8440858950231700
  //            Monomer B HF           //
    Molecular point group: c1

    Geometry (in Bohr), charge = 0, multiplicity = 1:

       Center              X                  Y                   Z               Mass
    ------------   -----------------  -----------------  -----------------  -----------------
      Gh(O)          -5.531022370000     2.939402900000     1.977626240000    15.994914619570
      Gh(O)          -2.407088860000     0.908177340000     0.049059090000    15.994914619570
      Gh(H)          -0.503048870000     1.375792050000     4.638809080000     1.007825032230
      Gh(H)           0.000000000000     4.251042850000     3.090722380000     1.007825032230
      Gh(H)          -2.389482150000     4.019167790000     5.401950410000     1.007825032230
      Gh(H)          -3.747714110000     0.471479300000    -1.215575120000     1.007825032230
      Gh(C)          -1.418597820000     2.985005000000     3.844051900000    12.000000000000
      Gh(C)          -3.322637810000     2.286288140000     1.912214130000    12.000000000000
         O           19.767305510000   -24.112687990000    -3.473383250000    15.994914619570
         O           16.643372000000   -26.143913550000    -5.401950410000    15.994914619570
         H           14.739332010000   -25.676298840000    -0.812200410000     1.007825032230
         H           14.236283140000   -22.801048040000    -2.360287110000     1.007825032230
         H           16.625765290000   -23.032923100000    -0.049059090000     1.007825032230
         H           17.983997250000   -26.580611590000    -6.666584610000     1.007825032230
         C           15.654880960000   -24.067085890000    -1.606957600000    12.000000000000
         C           17.558920950000   -24.765802750000    -3.538795360000    12.000000000000

  Charge       = 0
  Multiplicity = 1
  Basis Set: AUG-CC-PVDZ
    Blend: AUG-CC-PVDZ
  Basis Set: (AUG-CC-PVDZ AUX)
    Blend: AUG-CC-PVDZ-JKFIT

    Orbital Energies [Eh]
    ---------------------

    Doubly Occupied:

       1A    -20.629476     2A    -20.552804     3A    -11.396108
       4A    -11.250979     5A     -1.475853     6A     -1.357486
       7A     -1.032999     8A     -0.837930     9A     -0.703065
      10A     -0.688465    11A     -0.657749    12A     -0.576538
      13A     -0.569697    14A     -0.561403    15A     -0.475343
      16A     -0.452434

  @DF-RHF Final Energy:  -227.84408589296410

   => Energetics <=

    Nuclear Repulsion Energy =            121.7484301954920056
    One-Electron Energy =                -552.7483713929341320
    Two-Electron Energy =                 203.1558553044780240
    Total Energy =                       -227.8440858929641024

  Dipole Moment: [D]
     X:    -2.1048      Y:    -0.7191      Z:    -0.2116     Total:     2.2342

    SAPT Results
  --------------------------------------------------------------------------------------------------------
    Electrostatics                  0.00393271 [mEh]       0.00246782 [kcal/mol]       0.01032534 [kJ/mol]
      Elst10,r                      0.00393271 [mEh]       0.00246782 [kcal/mol]       0.01032534 [kJ/mol]

    Exchange                       -0.00000000 [mEh]      -0.00000000 [kcal/mol]      -0.00000000 [kJ/mol]
      Exch10                       -0.00000000 [mEh]      -0.00000000 [kcal/mol]      -0.00000000 [kJ/mol]
      Exch10(S^2)                  -0.00000000 [mEh]      -0.00000000 [kcal/mol]      -0.00000000 [kJ/mol]

    Induction                      -0.00004488 [mEh]      -0.00002817 [kcal/mol]      -0.00011784 [kJ/mol]
      Ind20,r                      -0.00002099 [mEh]      -0.00001317 [kcal/mol]      -0.00005510 [kJ/mol]
      Exch-Ind20,r                  0.00000000 [mEh]       0.00000000 [kcal/mol]       0.00000000 [kJ/mol]
      delta HF,r (2)               -0.00002390 [mEh]      -0.00001500 [kcal/mol]      -0.00006275 [kJ/mol]

    Dispersion                     -0.00038181 [mEh]      -0.00023959 [kcal/mol]      -0.00100244 [kJ/mol]
      Disp20                       -0.00038181 [mEh]      -0.00023959 [kcal/mol]      -0.00100244 [kJ/mol]
      Exch-Disp20                   0.00000000 [mEh]       0.00000000 [kcal/mol]       0.00000000 [kJ/mol]
      Disp20 (SS)                  -0.00019090 [mEh]      -0.00011979 [kcal/mol]      -0.00050122 [kJ/mol]
      Disp20 (OS)                  -0.00019090 [mEh]      -0.00011979 [kcal/mol]      -0.00050122 [kJ/mol]
      Exch-Disp20 (SS)              0.00000000 [mEh]       0.00000000 [kcal/mol]       0.00000000 [kJ/mol]
      Exch-Disp20 (OS)              0.00000000 [mEh]       0.00000000 [kcal/mol]       0.00000000 [kJ/mol]

  Total HF                          0.00388783 [mEh]       0.00243965 [kcal/mol]       0.01020750 [kJ/mol]
  Total SAPT0                       0.00350602 [mEh]       0.00220006 [kcal/mol]       0.00920506 [kJ/mol]

  Special recipe for scaled SAPT0 (see Manual):
    Electrostatics sSAPT0           0.00393271 [mEh]       0.00246782 [kcal/mol]       0.01032534 [kJ/mol]
    Exchange sSAPT0                -0.00000000 [mEh]      -0.00000000 [kcal/mol]      -0.00000000 [kJ/mol]
    Induction sSAPT0               -0.00004488 [mEh]      -0.00002817 [kcal/mol]      -0.00011784 [kJ/mol]
    Dispersion sSAPT0              -0.00038181 [mEh]      -0.00023959 [kcal/mol]      -0.00100244 [kJ/mol]
  Total sSAPT0                      0.00350602 [mEh]       0.00220006 [kcal/mol]       0.00920506 [kJ/mol]
  --------------------------------------------------------------------------------------------------------

*** Psi4 exiting successfully. Buy a developer a beer!
