                               Psi4 1.4rc3

  ==> Input File <==

--------------------------------------------------------------------------
# PSI4 file produced by CrystaLattE

# Generated from:               acetic_acid.xyz
# Psithon input for N-mer:      2mer-0+73
# Number of atoms per monomer:  [8, 8]
# Number of replicas:           2
# COM priority:                 1.145619808861e-04
# Minimum COM separations:      10.896
# Separation priority:          1.546981135588e-04
# Minimum monomer separations:  9.858
# Cutoff priority:              8.304497468854e-06
# Nuclear repulsion energy:     292.61722778624244

memory 7 GB

molecule Dimer_0_73 {
  O           -5.53102237       2.93940290       1.97762624
  O           -2.40708886       0.90817734       0.04905909
  H           -0.50304887       1.37579205       4.63880908
  H            0.00000000       4.25104285       3.09072238
  H           -2.38948215       4.01916779       5.40195041
  H           -3.74771411       0.47147930      -1.21557512
  C           -1.41859782       2.98500500       3.84405190
  C           -3.32263781       2.28628814       1.91221413
--
  O           -5.38513820     -16.38351916       7.42863574
  O           -8.50907170     -18.41474473       5.50006858
  H          -10.41311169     -17.94713001      10.08981858
  H          -10.91616057     -15.07187921       8.54173188
  H           -8.52667842     -15.30375427      10.85295990
  H           -7.16844646     -18.85144277       4.23543438
  C           -9.49756274     -16.33791706       9.29506139
  C           -7.59352275     -17.03663393       7.36322363
units = au
no_com
no_reorient
}

set {
  e_convergence 10
  d_convergence 10
  scf_type df
  mp2_type df
  cc_type df
  freeze_core true
}

energy('sapt0/aug-cc-pvdz')

--------------------------------------------------------------------------

  //              Dimer HF             //
    Molecular point group: c1
  Charge       = 0
  Multiplicity = 1
  Basis Set: AUG-CC-PVDZ
    Blend: AUG-CC-PVDZ
  Basis Set: (AUG-CC-PVDZ AUX)
    Blend: AUG-CC-PVDZ-JKFIT
  @DF-RHF Final Energy:  -455.68826487460245
    Total Energy =                       -455.6882648746024529
  //            Monomer A HF           //
    Molecular point group: c1
  Multiplicity = 1
  Basis Set: AUG-CC-PVDZ
    Blend: AUG-CC-PVDZ
  Basis Set: (AUG-CC-PVDZ AUX)
    Blend: AUG-CC-PVDZ-JKFIT
  @DF-RHF Final Energy:  -227.84408596337553
    Total Energy =                       -227.8440859633755338
  //            Monomer B HF           //
    Molecular point group: c1

    Geometry (in Bohr), charge = 0, multiplicity = 1:

       Center              X                  Y                   Z               Mass
    ------------   -----------------  -----------------  -----------------  -----------------
      Gh(O)          -5.531022370000     2.939402900000     1.977626240000    15.994914619570
      Gh(O)          -2.407088860000     0.908177340000     0.049059090000    15.994914619570
      Gh(H)          -0.503048870000     1.375792050000     4.638809080000     1.007825032230
      Gh(H)           0.000000000000     4.251042850000     3.090722380000     1.007825032230
      Gh(H)          -2.389482150000     4.019167790000     5.401950410000     1.007825032230
      Gh(H)          -3.747714110000     0.471479300000    -1.215575120000     1.007825032230
      Gh(C)          -1.418597820000     2.985005000000     3.844051900000    12.000000000000
      Gh(C)          -3.322637810000     2.286288140000     1.912214130000    12.000000000000
         O           -5.385138200000   -16.383519160000     7.428635740000    15.994914619570
         O           -8.509071700000   -18.414744730000     5.500068580000    15.994914619570
         H          -10.413111690000   -17.947130010000    10.089818580000     1.007825032230
         H          -10.916160570000   -15.071879210000     8.541731880000     1.007825032230
         H           -8.526678420000   -15.303754270000    10.852959900000     1.007825032230
         H           -7.168446460000   -18.851442770000     4.235434380000     1.007825032230
         C           -9.497562740000   -16.337917060000     9.295061390000    12.000000000000
         C           -7.593522750000   -17.036633930000     7.363223630000    12.000000000000

  Charge       = 0
  Multiplicity = 1
  Basis Set: AUG-CC-PVDZ
    Blend: AUG-CC-PVDZ
  Basis Set: (AUG-CC-PVDZ AUX)
    Blend: AUG-CC-PVDZ-JKFIT

    Orbital Energies [Eh]
    ---------------------

    Doubly Occupied:

       1A    -20.629476     2A    -20.552804     3A    -11.396108
       4A    -11.250979     5A     -1.475853     6A     -1.357486
       7A     -1.032999     8A     -0.837930     9A     -0.703065
      10A     -0.688465    11A     -0.657749    12A     -0.576538
      13A     -0.569697    14A     -0.561403    15A     -0.475343
      16A     -0.452433

  @DF-RHF Final Energy:  -227.84408598971820

   => Energetics <=

    Nuclear Repulsion Energy =            121.7484302657749993
    One-Electron Energy =                -552.7483727063138303
    Two-Electron Energy =                 203.1558564508206075
    Total Energy =                       -227.8440859897181952

  Dipole Moment: [D]
     X:    -2.1047      Y:    -0.7191      Z:    -0.2116     Total:     2.2342

    SAPT Results
  --------------------------------------------------------------------------------------------------------
    Electrostatics                 -0.09229337 [mEh]      -0.05791497 [kcal/mol]      -0.24231622 [kJ/mol]
      Elst10,r                     -0.09229337 [mEh]      -0.05791497 [kcal/mol]      -0.24231622 [kJ/mol]

    Exchange                        0.00000001 [mEh]       0.00000001 [kcal/mol]       0.00000003 [kJ/mol]
      Exch10                        0.00000001 [mEh]       0.00000001 [kcal/mol]       0.00000003 [kJ/mol]
      Exch10(S^2)                   0.00000001 [mEh]       0.00000001 [kcal/mol]       0.00000003 [kJ/mol]

    Induction                      -0.00062815 [mEh]      -0.00039417 [kcal/mol]      -0.00164920 [kJ/mol]
      Ind20,r                      -0.00060388 [mEh]      -0.00037894 [kcal/mol]      -0.00158548 [kJ/mol]
      Exch-Ind20,r                  0.00000014 [mEh]       0.00000009 [kcal/mol]       0.00000036 [kJ/mol]
      delta HF,r (2)               -0.00002441 [mEh]      -0.00001532 [kcal/mol]      -0.00006409 [kJ/mol]

    Dispersion                     -0.00638237 [mEh]      -0.00400500 [kcal/mol]      -0.01675692 [kJ/mol]
      Disp20                       -0.00638239 [mEh]      -0.00400501 [kcal/mol]      -0.01675696 [kJ/mol]
      Exch-Disp20                   0.00000002 [mEh]       0.00000001 [kcal/mol]       0.00000004 [kJ/mol]
      Disp20 (SS)                  -0.00319119 [mEh]      -0.00200250 [kcal/mol]      -0.00837848 [kJ/mol]
      Disp20 (OS)                  -0.00319119 [mEh]      -0.00200250 [kcal/mol]      -0.00837848 [kJ/mol]
      Exch-Disp20 (SS)              0.00000001 [mEh]       0.00000001 [kcal/mol]       0.00000004 [kJ/mol]
      Exch-Disp20 (OS)              0.00000000 [mEh]       0.00000000 [kcal/mol]       0.00000001 [kJ/mol]

  Total HF                         -0.09292151 [mEh]      -0.05830913 [kcal/mol]      -0.24396539 [kJ/mol]
  Total SAPT0                      -0.09930388 [mEh]      -0.06231413 [kcal/mol]      -0.26072230 [kJ/mol]

  Special recipe for scaled SAPT0 (see Manual):
    Electrostatics sSAPT0          -0.09229337 [mEh]      -0.05791497 [kcal/mol]      -0.24231622 [kJ/mol]
    Exchange sSAPT0                 0.00000001 [mEh]       0.00000001 [kcal/mol]       0.00000003 [kJ/mol]
    Induction sSAPT0               -0.00062815 [mEh]      -0.00039417 [kcal/mol]      -0.00164920 [kJ/mol]
    Dispersion sSAPT0              -0.00638237 [mEh]      -0.00400500 [kcal/mol]      -0.01675692 [kJ/mol]
  Total sSAPT0                     -0.09930388 [mEh]      -0.06231413 [kcal/mol]      -0.26072230 [kJ/mol]
  --------------------------------------------------------------------------------------------------------

*** Psi4 exiting successfully. Buy a developer a beer!
