                               Psi4 1.4rc3

  ==> Input File <==

--------------------------------------------------------------------------
# PSI4 file produced by CrystaLattE

# Generated from:               acetic_acid.xyz
# Psithon input for N-mer:      2mer-0+409
# Number of atoms per monomer:  [8, 8]
# Number of replicas:           2
# COM priority:                 2.208169542009e-05
# Minimum COM separations:      18.862
# Separation priority:          3.412715144780e-05
# Minimum monomer separations:  16.314
# Cutoff priority:              1.106963717299e-06
# Nuclear repulsion energy:     272.2148346104658

memory 7 GB

molecule Dimer_0_409 {
  O           -5.53102237       2.93940290       1.97762624
  O           -2.40708886       0.90817734       0.04905909
  H           -0.50304887       1.37579205       4.63880908
  H            0.00000000       4.25104285       3.09072238
  H           -2.38948215       4.01916779       5.40195041
  H           -3.74771411       0.47147930      -1.21557512
  C           -1.41859782       2.98500500       3.84405190
  C           -3.32263781       2.28628814       1.91221413
--
  O            7.19108365      35.86102460      -3.47338325
  O            4.06715015      37.89225017      -5.40195041
  H            2.16311016      37.42463545      -0.81220041
  H            1.66006128      34.54938465      -2.36028711
  H            4.04954344      34.78125972      -0.04905909
  H            5.40777540      38.32894821      -6.66658461
  C            3.07865911      35.81542250      -1.60695760
  C            4.98269910      36.51413937      -3.53879536
units = au
no_com
no_reorient
}

set {
  e_convergence 10
  d_convergence 10
  scf_type df
  mp2_type df
  cc_type df
  freeze_core true
}

energy('sapt0/aug-cc-pvdz')

--------------------------------------------------------------------------

  //              Dimer HF             //
    Molecular point group: c1
  Charge       = 0
  Multiplicity = 1
  Basis Set: AUG-CC-PVDZ
    Blend: AUG-CC-PVDZ
  Basis Set: (AUG-CC-PVDZ AUX)
    Blend: AUG-CC-PVDZ-JKFIT
  @DF-RHF Final Energy:  -455.68819237017692
    Total Energy =                       -455.6881923701769210
  //            Monomer A HF           //
    Molecular point group: c1
  Multiplicity = 1
  Basis Set: AUG-CC-PVDZ
    Blend: AUG-CC-PVDZ
  Basis Set: (AUG-CC-PVDZ AUX)
    Blend: AUG-CC-PVDZ-JKFIT
  @DF-RHF Final Energy:  -227.84408589359356
    Total Energy =                       -227.8440858935935580
  //            Monomer B HF           //
    Molecular point group: c1

    Geometry (in Bohr), charge = 0, multiplicity = 1:

       Center              X                  Y                   Z               Mass
    ------------   -----------------  -----------------  -----------------  -----------------
      Gh(O)          -5.531022370000     2.939402900000     1.977626240000    15.994914619570
      Gh(O)          -2.407088860000     0.908177340000     0.049059090000    15.994914619570
      Gh(H)          -0.503048870000     1.375792050000     4.638809080000     1.007825032230
      Gh(H)           0.000000000000     4.251042850000     3.090722380000     1.007825032230
      Gh(H)          -2.389482150000     4.019167790000     5.401950410000     1.007825032230
      Gh(H)          -3.747714110000     0.471479300000    -1.215575120000     1.007825032230
      Gh(C)          -1.418597820000     2.985005000000     3.844051900000    12.000000000000
      Gh(C)          -3.322637810000     2.286288140000     1.912214130000    12.000000000000
         O            7.191083650000    35.861024600000    -3.473383250000    15.994914619570
         O            4.067150150000    37.892250170000    -5.401950410000    15.994914619570
         H            2.163110160000    37.424635450000    -0.812200410000     1.007825032230
         H            1.660061280000    34.549384650000    -2.360287110000     1.007825032230
         H            4.049543440000    34.781259720000    -0.049059090000     1.007825032230
         H            5.407775400000    38.328948210000    -6.666584610000     1.007825032230
         C            3.078659110000    35.815422500000    -1.606957600000    12.000000000000
         C            4.982699100000    36.514139370000    -3.538795360000    12.000000000000

  Charge       = 0
  Multiplicity = 1
  Basis Set: AUG-CC-PVDZ
    Blend: AUG-CC-PVDZ
  Basis Set: (AUG-CC-PVDZ AUX)
    Blend: AUG-CC-PVDZ-JKFIT

    Orbital Energies [Eh]
    ---------------------

    Doubly Occupied:

       1A    -20.629476     2A    -20.552804     3A    -11.396108
       4A    -11.250979     5A     -1.475853     6A     -1.357486
       7A     -1.032999     8A     -0.837930     9A     -0.703065
      10A     -0.688465    11A     -0.657749    12A     -0.576538
      13A     -0.569697    14A     -0.561403    15A     -0.475343
      16A     -0.452434

  @DF-RHF Final Energy:  -227.84408589464957

   => Energetics <=

    Nuclear Repulsion Energy =            121.7484302569210826
    One-Electron Energy =                -552.7483715189869145
    Two-Electron Energy =                 203.1558553674162511
    Total Energy =                       -227.8440858946495666

  Dipole Moment: [D]
     X:    -2.1048      Y:     0.7191      Z:    -0.2116     Total:     2.2342

    SAPT Results
  --------------------------------------------------------------------------------------------------------
    Electrostatics                 -0.02053945 [mEh]      -0.01288870 [kcal/mol]      -0.05392632 [kJ/mol]
      Elst10,r                     -0.02053945 [mEh]      -0.01288870 [kcal/mol]      -0.05392632 [kJ/mol]

    Exchange                       -0.00000000 [mEh]      -0.00000000 [kcal/mol]      -0.00000000 [kJ/mol]
      Exch10                       -0.00000000 [mEh]      -0.00000000 [kcal/mol]      -0.00000000 [kJ/mol]
      Exch10(S^2)                  -0.00000000 [mEh]      -0.00000000 [kcal/mol]      -0.00000000 [kJ/mol]

    Induction                      -0.00004248 [mEh]      -0.00002666 [kcal/mol]      -0.00011154 [kJ/mol]
      Ind20,r                      -0.00001770 [mEh]      -0.00001111 [kcal/mol]      -0.00004648 [kJ/mol]
      Exch-Ind20,r                  0.00000000 [mEh]       0.00000000 [kcal/mol]       0.00000000 [kJ/mol]
      delta HF,r (2)               -0.00002478 [mEh]      -0.00001555 [kcal/mol]      -0.00006506 [kJ/mol]

    Dispersion                     -0.00028162 [mEh]      -0.00017672 [kcal/mol]      -0.00073939 [kJ/mol]
      Disp20                       -0.00028162 [mEh]      -0.00017672 [kcal/mol]      -0.00073939 [kJ/mol]
      Exch-Disp20                   0.00000000 [mEh]       0.00000000 [kcal/mol]       0.00000000 [kJ/mol]
      Disp20 (SS)                  -0.00014081 [mEh]      -0.00008836 [kcal/mol]      -0.00036970 [kJ/mol]
      Disp20 (OS)                  -0.00014081 [mEh]      -0.00008836 [kcal/mol]      -0.00036970 [kJ/mol]
      Exch-Disp20 (SS)              0.00000000 [mEh]       0.00000000 [kcal/mol]       0.00000000 [kJ/mol]
      Exch-Disp20 (OS)              0.00000000 [mEh]       0.00000000 [kcal/mol]       0.00000000 [kJ/mol]

  Total HF                         -0.02058193 [mEh]      -0.01291536 [kcal/mol]      -0.05403786 [kJ/mol]
  Total SAPT0                      -0.02086355 [mEh]      -0.01309208 [kcal/mol]      -0.05477725 [kJ/mol]

  Special recipe for scaled SAPT0 (see Manual):
    Electrostatics sSAPT0          -0.02053945 [mEh]      -0.01288870 [kcal/mol]      -0.05392632 [kJ/mol]
    Exchange sSAPT0                -0.00000000 [mEh]      -0.00000000 [kcal/mol]      -0.00000000 [kJ/mol]
    Induction sSAPT0               -0.00004248 [mEh]      -0.00002666 [kcal/mol]      -0.00011154 [kJ/mol]
    Dispersion sSAPT0              -0.00028162 [mEh]      -0.00017672 [kcal/mol]      -0.00073939 [kJ/mol]
  Total sSAPT0                     -0.02086355 [mEh]      -0.01309208 [kcal/mol]      -0.05477725 [kJ/mol]
  --------------------------------------------------------------------------------------------------------

*** Psi4 exiting successfully. Buy a developer a beer!
