                               Psi4 1.4rc3

  ==> Input File <==

--------------------------------------------------------------------------
# PSI4 file produced by CrystaLattE

# Generated from:               acetic_acid.xyz
# Psithon input for N-mer:      2mer-0+286
# Number of atoms per monomer:  [8, 8]
# Number of replicas:           2
# COM priority:                 3.604805476411e-05
# Minimum COM separations:      16.019
# Separation priority:          5.663737524212e-05
# Minimum monomer separations:  13.779
# Cutoff priority:              2.175057911889e-06
# Nuclear repulsion energy:     277.23424439556686

memory 7 GB

molecule Dimer_0_286 {
  O           -5.53102237       2.93940290       1.97762624
  O           -2.40708886       0.90817734       0.04905909
  H           -0.50304887       1.37579205       4.63880908
  H            0.00000000       4.25104285       3.09072238
  H           -2.38948215       4.01916779       5.40195041
  H           -3.74771411       0.47147930      -1.21557512
  C           -1.41859782       2.98500500       3.84405190
  C           -3.32263781       2.28628814       1.91221413
--
  O          -17.96136005      20.40268695     -14.37540224
  O          -21.08529356      22.43391252     -16.30396940
  H          -22.98933354      21.96629780     -11.71421941
  H          -23.49238242      19.09104700     -13.26230610
  H          -21.10290027      19.32292206     -10.95107808
  H          -19.74466831      22.87061056     -17.56860360
  C          -22.07378459      20.35708485     -12.50897659
  C          -20.16974460      21.05580172     -14.44081435
units = au
no_com
no_reorient
}

set {
  e_convergence 10
  d_convergence 10
  scf_type df
  mp2_type df
  cc_type df
  freeze_core true
}

energy('sapt0/aug-cc-pvdz')

--------------------------------------------------------------------------

  //              Dimer HF             //
    Molecular point group: c1
  Charge       = 0
  Multiplicity = 1
  Basis Set: AUG-CC-PVDZ
    Blend: AUG-CC-PVDZ
  Basis Set: (AUG-CC-PVDZ AUX)
    Blend: AUG-CC-PVDZ-JKFIT
  @DF-RHF Final Energy:  -455.68816021441535
    Total Energy =                       -455.6881602144153476
  //            Monomer A HF           //
    Molecular point group: c1
  Multiplicity = 1
  Basis Set: AUG-CC-PVDZ
    Blend: AUG-CC-PVDZ
  Basis Set: (AUG-CC-PVDZ AUX)
    Blend: AUG-CC-PVDZ-JKFIT
  @DF-RHF Final Energy:  -227.84408589650019
    Total Energy =                       -227.8440858965001894
  //            Monomer B HF           //
    Molecular point group: c1

    Geometry (in Bohr), charge = 0, multiplicity = 1:

       Center              X                  Y                   Z               Mass
    ------------   -----------------  -----------------  -----------------  -----------------
      Gh(O)          -5.531022370000     2.939402900000     1.977626240000    15.994914619570
      Gh(O)          -2.407088860000     0.908177340000     0.049059090000    15.994914619570
      Gh(H)          -0.503048870000     1.375792050000     4.638809080000     1.007825032230
      Gh(H)           0.000000000000     4.251042850000     3.090722380000     1.007825032230
      Gh(H)          -2.389482150000     4.019167790000     5.401950410000     1.007825032230
      Gh(H)          -3.747714110000     0.471479300000    -1.215575120000     1.007825032230
      Gh(C)          -1.418597820000     2.985005000000     3.844051900000    12.000000000000
      Gh(C)          -3.322637810000     2.286288140000     1.912214130000    12.000000000000
         O          -17.961360050000    20.402686950000   -14.375402240000    15.994914619570
         O          -21.085293560000    22.433912520000   -16.303969400000    15.994914619570
         H          -22.989333540000    21.966297800000   -11.714219410000     1.007825032230
         H          -23.492382420000    19.091047000000   -13.262306100000     1.007825032230
         H          -21.102900270000    19.322922060000   -10.951078080000     1.007825032230
         H          -19.744668310000    22.870610560000   -17.568603600000     1.007825032230
         C          -22.073784590000    20.357084850000   -12.508976590000    12.000000000000
         C          -20.169744600000    21.055801720000   -14.440814350000    12.000000000000

  Charge       = 0
  Multiplicity = 1
  Basis Set: AUG-CC-PVDZ
    Blend: AUG-CC-PVDZ
  Basis Set: (AUG-CC-PVDZ AUX)
    Blend: AUG-CC-PVDZ-JKFIT

    Orbital Energies [Eh]
    ---------------------

    Doubly Occupied:

       1A    -20.629476     2A    -20.552804     3A    -11.396108
       4A    -11.250979     5A     -1.475853     6A     -1.357486
       7A     -1.032999     8A     -0.837930     9A     -0.703065
      10A     -0.688465    11A     -0.657749    12A     -0.576538
      13A     -0.569697    14A     -0.561403    15A     -0.475343
      16A     -0.452434

  @DF-RHF Final Energy:  -227.84408589501498

   => Energetics <=

    Nuclear Repulsion Energy =            121.7484302153503393
    One-Electron Energy =                -552.7483714339805374
    Two-Electron Energy =                 203.1558553236151852
    Total Energy =                       -227.8440858950149845

  Dipole Moment: [D]
     X:    -2.1048      Y:     0.7191      Z:    -0.2116     Total:     2.2342

    SAPT Results
  --------------------------------------------------------------------------------------------------------
    Electrostatics                  0.01170827 [mEh]       0.00734705 [kcal/mol]       0.03074007 [kJ/mol]
      Elst10,r                      0.01170827 [mEh]       0.00734705 [kcal/mol]       0.03074007 [kJ/mol]

    Exchange                       -0.00000000 [mEh]      -0.00000000 [kcal/mol]      -0.00000000 [kJ/mol]
      Exch10                       -0.00000000 [mEh]      -0.00000000 [kcal/mol]      -0.00000000 [kJ/mol]
      Exch10(S^2)                  -0.00000000 [mEh]      -0.00000000 [kcal/mol]      -0.00000000 [kJ/mol]

    Induction                      -0.00013118 [mEh]      -0.00008231 [kcal/mol]      -0.00034440 [kJ/mol]
      Ind20,r                      -0.00012325 [mEh]      -0.00007734 [kcal/mol]      -0.00032360 [kJ/mol]
      Exch-Ind20,r                  0.00000000 [mEh]       0.00000000 [kcal/mol]       0.00000000 [kJ/mol]
      delta HF,r (2)               -0.00000792 [mEh]      -0.00000497 [kcal/mol]      -0.00002080 [kJ/mol]

    Dispersion                     -0.00076500 [mEh]      -0.00048004 [kcal/mol]      -0.00200850 [kJ/mol]
      Disp20                       -0.00076500 [mEh]      -0.00048004 [kcal/mol]      -0.00200850 [kJ/mol]
      Exch-Disp20                   0.00000000 [mEh]       0.00000000 [kcal/mol]       0.00000000 [kJ/mol]
      Disp20 (SS)                  -0.00038250 [mEh]      -0.00024002 [kcal/mol]      -0.00100425 [kJ/mol]
      Disp20 (OS)                  -0.00038250 [mEh]      -0.00024002 [kcal/mol]      -0.00100425 [kJ/mol]
      Exch-Disp20 (SS)              0.00000000 [mEh]       0.00000000 [kcal/mol]       0.00000000 [kJ/mol]
      Exch-Disp20 (OS)              0.00000000 [mEh]       0.00000000 [kcal/mol]       0.00000000 [kJ/mol]

  Total HF                          0.01157710 [mEh]       0.00726474 [kcal/mol]       0.03039567 [kJ/mol]
  Total SAPT0                       0.01081210 [mEh]       0.00678470 [kcal/mol]       0.02838717 [kJ/mol]

  Special recipe for scaled SAPT0 (see Manual):
    Electrostatics sSAPT0           0.01170827 [mEh]       0.00734705 [kcal/mol]       0.03074007 [kJ/mol]
    Exchange sSAPT0                -0.00000000 [mEh]      -0.00000000 [kcal/mol]      -0.00000000 [kJ/mol]
    Induction sSAPT0               -0.00013118 [mEh]      -0.00008231 [kcal/mol]      -0.00034440 [kJ/mol]
    Dispersion sSAPT0              -0.00076500 [mEh]      -0.00048004 [kcal/mol]      -0.00200850 [kJ/mol]
  Total sSAPT0                      0.01081210 [mEh]       0.00678470 [kcal/mol]       0.02838717 [kJ/mol]
  --------------------------------------------------------------------------------------------------------

*** Psi4 exiting successfully. Buy a developer a beer!
