                               Psi4 1.4rc3

  ==> Input File <==

--------------------------------------------------------------------------
# PSI4 file produced by CrystaLattE

# Generated from:               acetic_acid.xyz
# Psithon input for N-mer:      2mer-0+508
# Number of atoms per monomer:  [8, 8]
# Number of replicas:           2
# COM priority:                 1.680803071396e-05
# Minimum COM separations:      20.658
# Separation priority:          2.482906501317e-05
# Minimum monomer separations:  18.139
# Cutoff priority:              7.243478146730e-07
# Nuclear repulsion energy:     269.665454406879

memory 7 GB

molecule Dimer_0_508 {
  O           -5.53102237       2.93940290       1.97762624
  O           -2.40708886       0.90817734       0.04905909
  H           -0.50304887       1.37579205       4.63880908
  H            0.00000000       4.25104285       3.09072238
  H           -2.38948215       4.01916779       5.40195041
  H           -3.74771411       0.47147930      -1.21557512
  C           -1.41859782       2.98500500       3.84405190
  C           -3.32263781       2.28628814       1.91221413
--
  O          -30.53758190     -16.38351916     -14.37540224
  O          -33.66151541     -18.41474473     -16.30396940
  H          -35.56555540     -17.94713001     -11.71421941
  H          -36.06860427     -15.07187921     -13.26230610
  H          -33.67912212     -15.30375427     -10.95107808
  H          -32.32089016     -18.85144277     -17.56860360
  C          -34.65000644     -16.33791706     -12.50897659
  C          -32.74596646     -17.03663393     -14.44081435
units = au
no_com
no_reorient
}

set {
  e_convergence 10
  d_convergence 10
  scf_type df
  mp2_type df
  cc_type df
  freeze_core true
}

energy('sapt0/aug-cc-pvdz')

--------------------------------------------------------------------------

  //              Dimer HF             //
    Molecular point group: c1
  Charge       = 0
  Multiplicity = 1
  Basis Set: AUG-CC-PVDZ
    Blend: AUG-CC-PVDZ
  Basis Set: (AUG-CC-PVDZ AUX)
    Blend: AUG-CC-PVDZ-JKFIT
  @DF-RHF Final Energy:  -455.68817035990293
    Total Energy =                       -455.6881703599029265
  //            Monomer A HF           //
    Molecular point group: c1
  Multiplicity = 1
  Basis Set: AUG-CC-PVDZ
    Blend: AUG-CC-PVDZ
  Basis Set: (AUG-CC-PVDZ AUX)
    Blend: AUG-CC-PVDZ-JKFIT
  @DF-RHF Final Energy:  -227.84408589681101
    Total Energy =                       -227.8440858968110092
  //            Monomer B HF           //
    Molecular point group: c1

    Geometry (in Bohr), charge = 0, multiplicity = 1:

       Center              X                  Y                   Z               Mass
    ------------   -----------------  -----------------  -----------------  -----------------
      Gh(O)          -5.531022370000     2.939402900000     1.977626240000    15.994914619570
      Gh(O)          -2.407088860000     0.908177340000     0.049059090000    15.994914619570
      Gh(H)          -0.503048870000     1.375792050000     4.638809080000     1.007825032230
      Gh(H)           0.000000000000     4.251042850000     3.090722380000     1.007825032230
      Gh(H)          -2.389482150000     4.019167790000     5.401950410000     1.007825032230
      Gh(H)          -3.747714110000     0.471479300000    -1.215575120000     1.007825032230
      Gh(C)          -1.418597820000     2.985005000000     3.844051900000    12.000000000000
      Gh(C)          -3.322637810000     2.286288140000     1.912214130000    12.000000000000
         O          -30.537581900000   -16.383519160000   -14.375402240000    15.994914619570
         O          -33.661515410000   -18.414744730000   -16.303969400000    15.994914619570
         H          -35.565555400000   -17.947130010000   -11.714219410000     1.007825032230
         H          -36.068604270000   -15.071879210000   -13.262306100000     1.007825032230
         H          -33.679122120000   -15.303754270000   -10.951078080000     1.007825032230
         H          -32.320890160000   -18.851442770000   -17.568603600000     1.007825032230
         C          -34.650006440000   -16.337917060000   -12.508976590000    12.000000000000
         C          -32.745966460000   -17.036633930000   -14.440814350000    12.000000000000

  Charge       = 0
  Multiplicity = 1
  Basis Set: AUG-CC-PVDZ
    Blend: AUG-CC-PVDZ
  Basis Set: (AUG-CC-PVDZ AUX)
    Blend: AUG-CC-PVDZ-JKFIT

    Orbital Energies [Eh]
    ---------------------

    Doubly Occupied:

       1A    -20.629476     2A    -20.552804     3A    -11.396108
       4A    -11.250979     5A     -1.475853     6A     -1.357486
       7A     -1.032999     8A     -0.837930     9A     -0.703065
      10A     -0.688465    11A     -0.657749    12A     -0.576538
      13A     -0.569697    14A     -0.561403    15A     -0.475343
      16A     -0.452434

  @DF-RHF Final Energy:  -227.84408589607361

   => Energetics <=

    Nuclear Repulsion Energy =            121.7484301812638563
    One-Electron Energy =                -552.7483713817944135
    Two-Electron Energy =                 203.1558553044569351
    Total Energy =                       -227.8440858960736080

  Dipole Moment: [D]
     X:    -2.1048      Y:    -0.7191      Z:    -0.2116     Total:     2.2342

    SAPT Results
  --------------------------------------------------------------------------------------------------------
    Electrostatics                  0.00147113 [mEh]       0.00092315 [kcal/mol]       0.00386246 [kJ/mol]
      Elst10,r                      0.00147113 [mEh]       0.00092315 [kcal/mol]       0.00386246 [kJ/mol]

    Exchange                       -0.00000000 [mEh]      -0.00000000 [kcal/mol]      -0.00000000 [kJ/mol]
      Exch10                       -0.00000000 [mEh]      -0.00000000 [kcal/mol]      -0.00000000 [kJ/mol]
      Exch10(S^2)                  -0.00000000 [mEh]      -0.00000000 [kcal/mol]      -0.00000000 [kJ/mol]

    Induction                      -0.00003815 [mEh]      -0.00002394 [kcal/mol]      -0.00010017 [kJ/mol]
      Ind20,r                      -0.00002706 [mEh]      -0.00001698 [kcal/mol]      -0.00007104 [kJ/mol]
      Exch-Ind20,r                  0.00000000 [mEh]       0.00000000 [kcal/mol]       0.00000000 [kJ/mol]
      delta HF,r (2)               -0.00001109 [mEh]      -0.00000696 [kcal/mol]      -0.00002912 [kJ/mol]

    Dispersion                     -0.00016454 [mEh]      -0.00010325 [kcal/mol]      -0.00043199 [kJ/mol]
      Disp20                       -0.00016454 [mEh]      -0.00010325 [kcal/mol]      -0.00043199 [kJ/mol]
      Exch-Disp20                   0.00000000 [mEh]       0.00000000 [kcal/mol]       0.00000000 [kJ/mol]
      Disp20 (SS)                  -0.00008227 [mEh]      -0.00005162 [kcal/mol]      -0.00021600 [kJ/mol]
      Disp20 (OS)                  -0.00008227 [mEh]      -0.00005162 [kcal/mol]      -0.00021600 [kJ/mol]
      Exch-Disp20 (SS)              0.00000000 [mEh]       0.00000000 [kcal/mol]       0.00000000 [kJ/mol]
      Exch-Disp20 (OS)              0.00000000 [mEh]       0.00000000 [kcal/mol]       0.00000000 [kJ/mol]

  Total HF                          0.00143298 [mEh]       0.00089921 [kcal/mol]       0.00376229 [kJ/mol]
  Total SAPT0                       0.00126844 [mEh]       0.00079596 [kcal/mol]       0.00333030 [kJ/mol]

  Special recipe for scaled SAPT0 (see Manual):
    Electrostatics sSAPT0           0.00147113 [mEh]       0.00092315 [kcal/mol]       0.00386246 [kJ/mol]
    Exchange sSAPT0                -0.00000000 [mEh]      -0.00000000 [kcal/mol]      -0.00000000 [kJ/mol]
    Induction sSAPT0               -0.00003815 [mEh]      -0.00002394 [kcal/mol]      -0.00010017 [kJ/mol]
    Dispersion sSAPT0              -0.00016454 [mEh]      -0.00010325 [kcal/mol]      -0.00043199 [kJ/mol]
  Total sSAPT0                      0.00126844 [mEh]       0.00079596 [kcal/mol]       0.00333030 [kJ/mol]
  --------------------------------------------------------------------------------------------------------

*** Psi4 exiting successfully. Buy a developer a beer!
