                               Psi4 1.4rc3

  ==> Input File <==

--------------------------------------------------------------------------
# PSI4 file produced by CrystaLattE

# Generated from:               acetic_acid.xyz
# Psithon input for N-mer:      2mer-0+233
# Number of atoms per monomer:  [8, 8]
# Number of replicas:           2
# COM priority:                 3.208077280836e-05
# Minimum COM separations:      16.654
# Separation priority:          5.075385106787e-05
# Minimum monomer separations:  14.293
# Cutoff priority:              1.879137969610e-06
# Nuclear repulsion energy:     275.95292675110477

memory 7 GB

molecule Dimer_0_233 {
  O           -5.53102237       2.93940290       1.97762624
  O           -2.40708886       0.90817734       0.04905909
  H           -0.50304887       1.37579205       4.63880908
  H            0.00000000       4.25104285       3.09072238
  H           -2.38948215       4.01916779       5.40195041
  H           -3.74771411       0.47147930      -1.21557512
  C           -1.41859782       2.98500500       3.84405190
  C           -3.32263781       2.28628814       1.91221413
--
  O           19.62142133      18.39774056      -8.92439275
  O           22.74535484      16.36651499     -10.85295990
  H           24.64939483      16.83412970      -6.26320991
  H           25.15244370      19.70938051      -7.81129661
  H           22.76296155      19.47750544      -5.50006858
  H           21.40472959      15.92981695     -12.11759411
  C           23.73384588      18.44334265      -7.05796709
  C           21.82980589      17.74462579      -8.98980486
units = au
no_com
no_reorient
}

set {
  e_convergence 10
  d_convergence 10
  scf_type df
  mp2_type df
  cc_type df
  freeze_core true
}

energy('sapt0/aug-cc-pvdz')

--------------------------------------------------------------------------

  //              Dimer HF             //
    Molecular point group: c1
  Charge       = 0
  Multiplicity = 1
  Basis Set: AUG-CC-PVDZ
    Blend: AUG-CC-PVDZ
  Basis Set: (AUG-CC-PVDZ AUX)
    Blend: AUG-CC-PVDZ-JKFIT
  @DF-RHF Final Energy:  -455.68817761076053
    Total Energy =                       -455.6881776107605333
  //            Monomer A HF           //
    Molecular point group: c1
  Multiplicity = 1
  Basis Set: AUG-CC-PVDZ
    Blend: AUG-CC-PVDZ
  Basis Set: (AUG-CC-PVDZ AUX)
    Blend: AUG-CC-PVDZ-JKFIT
  @DF-RHF Final Energy:  -227.84408589229898
    Total Energy =                       -227.8440858922989776
  //            Monomer B HF           //
    Molecular point group: c1

    Geometry (in Bohr), charge = 0, multiplicity = 1:

       Center              X                  Y                   Z               Mass
    ------------   -----------------  -----------------  -----------------  -----------------
      Gh(O)          -5.531022370000     2.939402900000     1.977626240000    15.994914619570
      Gh(O)          -2.407088860000     0.908177340000     0.049059090000    15.994914619570
      Gh(H)          -0.503048870000     1.375792050000     4.638809080000     1.007825032230
      Gh(H)           0.000000000000     4.251042850000     3.090722380000     1.007825032230
      Gh(H)          -2.389482150000     4.019167790000     5.401950410000     1.007825032230
      Gh(H)          -3.747714110000     0.471479300000    -1.215575120000     1.007825032230
      Gh(C)          -1.418597820000     2.985005000000     3.844051900000    12.000000000000
      Gh(C)          -3.322637810000     2.286288140000     1.912214130000    12.000000000000
         O           19.621421330000    18.397740560000    -8.924392750000    15.994914619570
         O           22.745354840000    16.366514990000   -10.852959900000    15.994914619570
         H           24.649394830000    16.834129700000    -6.263209910000     1.007825032230
         H           25.152443700000    19.709380510000    -7.811296610000     1.007825032230
         H           22.762961550000    19.477505440000    -5.500068580000     1.007825032230
         H           21.404729590000    15.929816950000   -12.117594110000     1.007825032230
         C           23.733845880000    18.443342650000    -7.057967090000    12.000000000000
         C           21.829805890000    17.744625790000    -8.989804860000    12.000000000000

  Charge       = 0
  Multiplicity = 1
  Basis Set: AUG-CC-PVDZ
    Blend: AUG-CC-PVDZ
  Basis Set: (AUG-CC-PVDZ AUX)
    Blend: AUG-CC-PVDZ-JKFIT

    Orbital Energies [Eh]
    ---------------------

    Doubly Occupied:

       1A    -20.629476     2A    -20.552804     3A    -11.396108
       4A    -11.250979     5A     -1.475853     6A     -1.357486
       7A     -1.032999     8A     -0.837930     9A     -0.703065
      10A     -0.688465    11A     -0.657749    12A     -0.576538
      13A     -0.569697    14A     -0.561403    15A     -0.475343
      16A     -0.452434

  @DF-RHF Final Energy:  -227.84408589525432

   => Energetics <=

    Nuclear Repulsion Energy =            121.7484301522181624
    One-Electron Energy =                -552.7483713197914312
    Two-Electron Energy =                 203.1558552723189734
    Total Energy =                       -227.8440858952543238

  Dipole Moment: [D]
     X:     2.1048      Y:    -0.7191      Z:    -0.2116     Total:     2.2342

    SAPT Results
  --------------------------------------------------------------------------------------------------------
    Electrostatics                 -0.00575211 [mEh]      -0.00360951 [kcal/mol]      -0.01510217 [kJ/mol]
      Elst10,r                     -0.00575211 [mEh]      -0.00360951 [kcal/mol]      -0.01510217 [kJ/mol]

    Exchange                       -0.00000000 [mEh]      -0.00000000 [kcal/mol]      -0.00000000 [kJ/mol]
      Exch10                       -0.00000000 [mEh]      -0.00000000 [kcal/mol]      -0.00000000 [kJ/mol]
      Exch10(S^2)                  -0.00000000 [mEh]      -0.00000000 [kcal/mol]      -0.00000000 [kJ/mol]

    Induction                      -0.00007109 [mEh]      -0.00004461 [kcal/mol]      -0.00018666 [kJ/mol]
      Ind20,r                      -0.00005022 [mEh]      -0.00003151 [kcal/mol]      -0.00013184 [kJ/mol]
      Exch-Ind20,r                  0.00000000 [mEh]       0.00000000 [kcal/mol]       0.00000000 [kJ/mol]
      delta HF,r (2)               -0.00002088 [mEh]      -0.00001310 [kcal/mol]      -0.00005481 [kJ/mol]

    Dispersion                     -0.00057632 [mEh]      -0.00036165 [kcal/mol]      -0.00151314 [kJ/mol]
      Disp20                       -0.00057632 [mEh]      -0.00036165 [kcal/mol]      -0.00151314 [kJ/mol]
      Exch-Disp20                   0.00000000 [mEh]       0.00000000 [kcal/mol]       0.00000000 [kJ/mol]
      Disp20 (SS)                  -0.00028816 [mEh]      -0.00018082 [kcal/mol]      -0.00075657 [kJ/mol]
      Disp20 (OS)                  -0.00028816 [mEh]      -0.00018082 [kcal/mol]      -0.00075657 [kJ/mol]
      Exch-Disp20 (SS)              0.00000000 [mEh]       0.00000000 [kcal/mol]       0.00000000 [kJ/mol]
      Exch-Disp20 (OS)              0.00000000 [mEh]       0.00000000 [kcal/mol]       0.00000000 [kJ/mol]

  Total HF                         -0.00582321 [mEh]      -0.00365412 [kcal/mol]      -0.01528883 [kJ/mol]
  Total SAPT0                      -0.00639953 [mEh]      -0.00401577 [kcal/mol]      -0.01680197 [kJ/mol]

  Special recipe for scaled SAPT0 (see Manual):
    Electrostatics sSAPT0          -0.00575211 [mEh]      -0.00360951 [kcal/mol]      -0.01510217 [kJ/mol]
    Exchange sSAPT0                -0.00000000 [mEh]      -0.00000000 [kcal/mol]      -0.00000000 [kJ/mol]
    Induction sSAPT0               -0.00007109 [mEh]      -0.00004461 [kcal/mol]      -0.00018666 [kJ/mol]
    Dispersion sSAPT0              -0.00057632 [mEh]      -0.00036165 [kcal/mol]      -0.00151314 [kJ/mol]
  Total sSAPT0                     -0.00639953 [mEh]      -0.00401577 [kcal/mol]      -0.01680197 [kJ/mol]
  --------------------------------------------------------------------------------------------------------

*** Psi4 exiting successfully. Buy a developer a beer!
