                               Psi4 1.4rc3

  ==> Input File <==

--------------------------------------------------------------------------
# PSI4 file produced by CrystaLattE

# Generated from:               acetic_acid.xyz
# Psithon input for N-mer:      2mer-0+47
# Number of atoms per monomer:  [8, 8]
# Number of replicas:           2
# COM priority:                 1.150714215884e-04
# Minimum COM separations:      10.880
# Separation priority:          4.060821765759e-04
# Minimum monomer separations:  7.146
# Cutoff priority:              3.007127929476e-05
# Nuclear repulsion energy:     293.559773210107

memory 7 GB

molecule Dimer_0_47 {
  O           -5.53102237       2.93940290       1.97762624
  O           -2.40708886       0.90817734       0.04905909
  H           -0.50304887       1.37579205       4.63880908
  H            0.00000000       4.25104285       3.09072238
  H           -2.38948215       4.01916779       5.40195041
  H           -3.74771411       0.47147930      -1.21557512
  C           -1.41859782       2.98500500       3.84405190
  C           -3.32263781       2.28628814       1.91221413
--
  O           -5.38513820      -8.65435033     -14.37540224
  O           -8.50907170     -10.68557590     -16.30396940
  H          -10.41311169     -10.21796119     -11.71421941
  H          -10.91616057      -7.34271038     -13.26230610
  H           -8.52667842      -7.57458545     -10.95107808
  H           -7.16844646     -11.12227394     -17.56860360
  C           -9.49756274      -8.60874824     -12.50897659
  C           -7.59352275      -9.30746510     -14.44081435
units = au
no_com
no_reorient
}

set {
  e_convergence 10
  d_convergence 10
  scf_type df
  mp2_type df
  cc_type df
  freeze_core true
}

energy('sapt0/aug-cc-pvdz')

--------------------------------------------------------------------------

  //              Dimer HF             //
    Molecular point group: c1
  Charge       = 0
  Multiplicity = 1
  Basis Set: AUG-CC-PVDZ
    Blend: AUG-CC-PVDZ
  Basis Set: (AUG-CC-PVDZ AUX)
    Blend: AUG-CC-PVDZ-JKFIT
  @DF-RHF Final Energy:  -455.68828269586101
    Total Energy =                       -455.6882826958610053
  //            Monomer A HF           //
    Molecular point group: c1
  Multiplicity = 1
  Basis Set: AUG-CC-PVDZ
    Blend: AUG-CC-PVDZ
  Basis Set: (AUG-CC-PVDZ AUX)
    Blend: AUG-CC-PVDZ-JKFIT
  @DF-RHF Final Energy:  -227.84408753747550
    Total Energy =                       -227.8440875374755024
  //            Monomer B HF           //
    Molecular point group: c1

    Geometry (in Bohr), charge = 0, multiplicity = 1:

       Center              X                  Y                   Z               Mass
    ------------   -----------------  -----------------  -----------------  -----------------
      Gh(O)          -5.531022370000     2.939402900000     1.977626240000    15.994914619570
      Gh(O)          -2.407088860000     0.908177340000     0.049059090000    15.994914619570
      Gh(H)          -0.503048870000     1.375792050000     4.638809080000     1.007825032230
      Gh(H)           0.000000000000     4.251042850000     3.090722380000     1.007825032230
      Gh(H)          -2.389482150000     4.019167790000     5.401950410000     1.007825032230
      Gh(H)          -3.747714110000     0.471479300000    -1.215575120000     1.007825032230
      Gh(C)          -1.418597820000     2.985005000000     3.844051900000    12.000000000000
      Gh(C)          -3.322637810000     2.286288140000     1.912214130000    12.000000000000
         O           -5.385138200000    -8.654350330000   -14.375402240000    15.994914619570
         O           -8.509071700000   -10.685575900000   -16.303969400000    15.994914619570
         H          -10.413111690000   -10.217961190000   -11.714219410000     1.007825032230
         H          -10.916160570000    -7.342710380000   -13.262306100000     1.007825032230
         H           -8.526678420000    -7.574585450000   -10.951078080000     1.007825032230
         H           -7.168446460000   -11.122273940000   -17.568603600000     1.007825032230
         C           -9.497562740000    -8.608748240000   -12.508976590000    12.000000000000
         C           -7.593522750000    -9.307465100000   -14.440814350000    12.000000000000

  Charge       = 0
  Multiplicity = 1
  Basis Set: AUG-CC-PVDZ
    Blend: AUG-CC-PVDZ
  Basis Set: (AUG-CC-PVDZ AUX)
    Blend: AUG-CC-PVDZ-JKFIT

    Orbital Energies [Eh]
    ---------------------

    Doubly Occupied:

       1A    -20.629476     2A    -20.552804     3A    -11.396106
       4A    -11.250980     5A     -1.475853     6A     -1.357487
       7A     -1.033000     8A     -0.837931     9A     -0.703066
      10A     -0.688466    11A     -0.657749    12A     -0.576538
      13A     -0.569698    14A     -0.561404    15A     -0.475344
      16A     -0.452434

  @DF-RHF Final Energy:  -227.84408841921055

   => Energetics <=

    Nuclear Repulsion Energy =            121.7484302949528825
    One-Electron Energy =                -552.7483701927930042
    Two-Electron Energy =                 203.1558514786295859
    Total Energy =                       -227.8440884192105500

  Dipole Moment: [D]
     X:    -2.1047      Y:    -0.7190      Z:    -0.2115     Total:     2.2342

    SAPT Results
  --------------------------------------------------------------------------------------------------------
    Electrostatics                 -0.10565973 [mEh]      -0.06630248 [kcal/mol]      -0.27740959 [kJ/mol]
      Elst10,r                     -0.10565973 [mEh]      -0.06630248 [kcal/mol]      -0.27740959 [kJ/mol]

    Exchange                        0.00000016 [mEh]       0.00000010 [kcal/mol]       0.00000043 [kJ/mol]
      Exch10                        0.00000016 [mEh]       0.00000010 [kcal/mol]       0.00000043 [kJ/mol]
      Exch10(S^2)                   0.00000016 [mEh]       0.00000010 [kcal/mol]       0.00000043 [kJ/mol]

    Induction                      -0.00107961 [mEh]      -0.00067746 [kcal/mol]      -0.00283451 [kJ/mol]
      Ind20,r                      -0.00102857 [mEh]      -0.00064544 [kcal/mol]      -0.00270051 [kJ/mol]
      Exch-Ind20,r                  0.00000107 [mEh]       0.00000067 [kcal/mol]       0.00000280 [kJ/mol]
      delta HF,r (2)               -0.00005210 [mEh]      -0.00003270 [kcal/mol]      -0.00013680 [kJ/mol]

    Dispersion                     -0.01002028 [mEh]      -0.00628782 [kcal/mol]      -0.02630825 [kJ/mol]
      Disp20                       -0.01002041 [mEh]      -0.00628790 [kcal/mol]      -0.02630859 [kJ/mol]
      Exch-Disp20                   0.00000013 [mEh]       0.00000008 [kcal/mol]       0.00000033 [kJ/mol]
      Disp20 (SS)                  -0.00501021 [mEh]      -0.00314395 [kcal/mol]      -0.01315429 [kJ/mol]
      Disp20 (OS)                  -0.00501021 [mEh]      -0.00314395 [kcal/mol]      -0.01315429 [kJ/mol]
      Exch-Disp20 (SS)              0.00000011 [mEh]       0.00000007 [kcal/mol]       0.00000028 [kJ/mol]
      Exch-Disp20 (OS)              0.00000002 [mEh]       0.00000001 [kcal/mol]       0.00000005 [kJ/mol]

  Total HF                         -0.10673917 [mEh]      -0.06697984 [kcal/mol]      -0.28024367 [kJ/mol]
  Total SAPT0                      -0.11675946 [mEh]      -0.07326767 [kcal/mol]      -0.30655192 [kJ/mol]

  Special recipe for scaled SAPT0 (see Manual):
    Electrostatics sSAPT0          -0.10565973 [mEh]      -0.06630248 [kcal/mol]      -0.27740959 [kJ/mol]
    Exchange sSAPT0                 0.00000016 [mEh]       0.00000010 [kcal/mol]       0.00000043 [kJ/mol]
    Induction sSAPT0               -0.00107961 [mEh]      -0.00067746 [kcal/mol]      -0.00283451 [kJ/mol]
    Dispersion sSAPT0              -0.01002028 [mEh]      -0.00628782 [kcal/mol]      -0.02630825 [kJ/mol]
  Total sSAPT0                     -0.11675946 [mEh]      -0.07326767 [kcal/mol]      -0.30655192 [kJ/mol]
  --------------------------------------------------------------------------------------------------------

*** Psi4 exiting successfully. Buy a developer a beer!
