                               Psi4 1.4rc3

  ==> Input File <==

--------------------------------------------------------------------------
# PSI4 file produced by CrystaLattE

# Generated from:               acetic_acid.xyz
# Psithon input for N-mer:      2mer-0+566
# Number of atoms per monomer:  [8, 8]
# Number of replicas:           2
# COM priority:                 1.499173454347e-05
# Minimum COM separations:      21.461
# Separation priority:          2.068269955802e-05
# Minimum monomer separations:  19.278
# Cutoff priority:              5.677314649177e-07
# Nuclear repulsion energy:     268.66532260274636

memory 7 GB

molecule Dimer_0_566 {
  O           -5.53102237       2.93940290       1.97762624
  O           -2.40708886       0.90817734       0.04905909
  H           -0.50304887       1.37579205       4.63880908
  H            0.00000000       4.25104285       3.09072238
  H           -2.38948215       4.01916779       5.40195041
  H           -3.74771411       0.47147930      -1.21557512
  C           -1.41859782       2.98500500       3.84405190
  C           -3.32263781       2.28628814       1.91221413
--
  O          -30.53758190     -24.11268799      -3.47338325
  O          -33.66151541     -26.14391355      -5.40195041
  H          -35.56555540     -25.67629884      -0.81220041
  H          -36.06860427     -22.80104804      -2.36028711
  H          -33.67912212     -23.03292310      -0.04905909
  H          -32.32089016     -26.58061159      -6.66658461
  C          -34.65000644     -24.06708589      -1.60695760
  C          -32.74596646     -24.76580275      -3.53879536
units = au
no_com
no_reorient
}

set {
  e_convergence 10
  d_convergence 10
  scf_type df
  mp2_type df
  cc_type df
  freeze_core true
}

energy('sapt0/aug-cc-pvdz')

--------------------------------------------------------------------------

  //              Dimer HF             //
    Molecular point group: c1
  Charge       = 0
  Multiplicity = 1
  Basis Set: AUG-CC-PVDZ
    Blend: AUG-CC-PVDZ
  Basis Set: (AUG-CC-PVDZ AUX)
    Blend: AUG-CC-PVDZ-JKFIT
  @DF-RHF Final Energy:  -455.68816865301676
    Total Energy =                       -455.6881686530167599
  //            Monomer A HF           //
    Molecular point group: c1
  Multiplicity = 1
  Basis Set: AUG-CC-PVDZ
    Blend: AUG-CC-PVDZ
  Basis Set: (AUG-CC-PVDZ AUX)
    Blend: AUG-CC-PVDZ-JKFIT
  @DF-RHF Final Energy:  -227.84408589668919
    Total Energy =                       -227.8440858966891938
  //            Monomer B HF           //
    Molecular point group: c1

    Geometry (in Bohr), charge = 0, multiplicity = 1:

       Center              X                  Y                   Z               Mass
    ------------   -----------------  -----------------  -----------------  -----------------
      Gh(O)          -5.531022370000     2.939402900000     1.977626240000    15.994914619570
      Gh(O)          -2.407088860000     0.908177340000     0.049059090000    15.994914619570
      Gh(H)          -0.503048870000     1.375792050000     4.638809080000     1.007825032230
      Gh(H)           0.000000000000     4.251042850000     3.090722380000     1.007825032230
      Gh(H)          -2.389482150000     4.019167790000     5.401950410000     1.007825032230
      Gh(H)          -3.747714110000     0.471479300000    -1.215575120000     1.007825032230
      Gh(C)          -1.418597820000     2.985005000000     3.844051900000    12.000000000000
      Gh(C)          -3.322637810000     2.286288140000     1.912214130000    12.000000000000
         O          -30.537581900000   -24.112687990000    -3.473383250000    15.994914619570
         O          -33.661515410000   -26.143913550000    -5.401950410000    15.994914619570
         H          -35.565555400000   -25.676298840000    -0.812200410000     1.007825032230
         H          -36.068604270000   -22.801048040000    -2.360287110000     1.007825032230
         H          -33.679122120000   -23.032923100000    -0.049059090000     1.007825032230
         H          -32.320890160000   -26.580611590000    -6.666584610000     1.007825032230
         C          -34.650006440000   -24.067085890000    -1.606957600000    12.000000000000
         C          -32.745966460000   -24.765802750000    -3.538795360000    12.000000000000

  Charge       = 0
  Multiplicity = 1
  Basis Set: AUG-CC-PVDZ
    Blend: AUG-CC-PVDZ
  Basis Set: (AUG-CC-PVDZ AUX)
    Blend: AUG-CC-PVDZ-JKFIT

    Orbital Energies [Eh]
    ---------------------

    Doubly Occupied:

       1A    -20.629476     2A    -20.552804     3A    -11.396108
       4A    -11.250979     5A     -1.475853     6A     -1.357486
       7A     -1.032999     8A     -0.837930     9A     -0.703065
      10A     -0.688465    11A     -0.657749    12A     -0.576538
      13A     -0.569697    14A     -0.561403    15A     -0.475343
      16A     -0.452434

  @DF-RHF Final Energy:  -227.84408589654490

   => Energetics <=

    Nuclear Repulsion Energy =            121.7484302437154327
    One-Electron Energy =                -552.7483715076607496
    Two-Electron Energy =                 203.1558553674003917
    Total Energy =                       -227.8440858965448967

  Dipole Moment: [D]
     X:    -2.1048      Y:    -0.7191      Z:    -0.2116     Total:     2.2342

    SAPT Results
  --------------------------------------------------------------------------------------------------------
    Electrostatics                  0.00316744 [mEh]       0.00198760 [kcal/mol]       0.00831612 [kJ/mol]
      Elst10,r                      0.00316744 [mEh]       0.00198760 [kcal/mol]       0.00831612 [kJ/mol]

    Exchange                       -0.00000000 [mEh]      -0.00000000 [kcal/mol]      -0.00000000 [kJ/mol]
      Exch10                       -0.00000000 [mEh]      -0.00000000 [kcal/mol]      -0.00000000 [kJ/mol]
      Exch10(S^2)                  -0.00000000 [mEh]      -0.00000000 [kcal/mol]      -0.00000000 [kJ/mol]

    Induction                      -0.00002723 [mEh]      -0.00001708 [kcal/mol]      -0.00007148 [kJ/mol]
      Ind20,r                      -0.00001819 [mEh]      -0.00001141 [kcal/mol]      -0.00004776 [kJ/mol]
      Exch-Ind20,r                  0.00000000 [mEh]       0.00000000 [kcal/mol]       0.00000000 [kJ/mol]
      delta HF,r (2)               -0.00000904 [mEh]      -0.00000567 [kcal/mol]      -0.00002373 [kJ/mol]

    Dispersion                     -0.00012367 [mEh]      -0.00007761 [kcal/mol]      -0.00032470 [kJ/mol]
      Disp20                       -0.00012367 [mEh]      -0.00007761 [kcal/mol]      -0.00032470 [kJ/mol]
      Exch-Disp20                   0.00000000 [mEh]       0.00000000 [kcal/mol]       0.00000000 [kJ/mol]
      Disp20 (SS)                  -0.00006184 [mEh]      -0.00003880 [kcal/mol]      -0.00016235 [kJ/mol]
      Disp20 (OS)                  -0.00006184 [mEh]      -0.00003880 [kcal/mol]      -0.00016235 [kJ/mol]
      Exch-Disp20 (SS)              0.00000000 [mEh]       0.00000000 [kcal/mol]       0.00000000 [kJ/mol]
      Exch-Disp20 (OS)              0.00000000 [mEh]       0.00000000 [kcal/mol]       0.00000000 [kJ/mol]

  Total HF                          0.00314022 [mEh]       0.00197052 [kcal/mol]       0.00824464 [kJ/mol]
  Total SAPT0                       0.00301654 [mEh]       0.00189291 [kcal/mol]       0.00791994 [kJ/mol]

  Special recipe for scaled SAPT0 (see Manual):
    Electrostatics sSAPT0           0.00316744 [mEh]       0.00198760 [kcal/mol]       0.00831612 [kJ/mol]
    Exchange sSAPT0                -0.00000000 [mEh]      -0.00000000 [kcal/mol]      -0.00000000 [kJ/mol]
    Induction sSAPT0               -0.00002723 [mEh]      -0.00001708 [kcal/mol]      -0.00007148 [kJ/mol]
    Dispersion sSAPT0              -0.00012367 [mEh]      -0.00007761 [kcal/mol]      -0.00032470 [kJ/mol]
  Total sSAPT0                      0.00301654 [mEh]       0.00189291 [kcal/mol]       0.00791994 [kJ/mol]
  --------------------------------------------------------------------------------------------------------

*** Psi4 exiting successfully. Buy a developer a beer!
