                               Psi4 1.4rc3

  ==> Input File <==

--------------------------------------------------------------------------
# PSI4 file produced by CrystaLattE

# Generated from:               acetic_acid.xyz
# Psithon input for N-mer:      2mer-0+76
# Number of atoms per monomer:  [8, 8]
# Number of replicas:           2
# COM priority:                 1.630564056530e-04
# Minimum COM separations:      9.686
# Separation priority:          3.871767377213e-04
# Minimum monomer separations:  7.260
# Cutoff priority:              2.821926350859e-05
# Nuclear repulsion energy:     299.32549961333075

memory 7 GB

molecule Dimer_0_76 {
  O           -5.53102237       2.93940290       1.97762624
  O           -2.40708886       0.90817734       0.04905909
  H           -0.50304887       1.37579205       4.63880908
  H            0.00000000       4.25104285       3.09072238
  H           -2.38948215       4.01916779       5.40195041
  H           -3.74771411       0.47147930      -1.21557512
  C           -1.41859782       2.98500500       3.84405190
  C           -3.32263781       2.28628814       1.91221413
--
  O          -17.96136005       4.94434930      -3.47338325
  O          -21.08529356       6.97557487      -5.40195041
  H          -22.98933354       6.50796015      -0.81220041
  H          -23.49238242       3.63270935      -2.36028711
  H          -21.10290027       3.86458441      -0.04905909
  H          -19.74466831       7.41227290      -6.66658461
  C          -22.07378459       4.89874720      -1.60695760
  C          -20.16974460       5.59746406      -3.53879536
units = au
no_com
no_reorient
}

set {
  e_convergence 10
  d_convergence 10
  scf_type df
  mp2_type df
  cc_type df
  freeze_core true
}

energy('sapt0/aug-cc-pvdz')

--------------------------------------------------------------------------

  //              Dimer HF             //
    Molecular point group: c1
  Charge       = 0
  Multiplicity = 1
  Basis Set: AUG-CC-PVDZ
    Blend: AUG-CC-PVDZ
  Basis Set: (AUG-CC-PVDZ AUX)
    Blend: AUG-CC-PVDZ-JKFIT
  @DF-RHF Final Energy:  -455.68770489577832
    Total Energy =                       -455.6877048957783245
  //            Monomer A HF           //
    Molecular point group: c1
  Multiplicity = 1
  Basis Set: AUG-CC-PVDZ
    Blend: AUG-CC-PVDZ
  Basis Set: (AUG-CC-PVDZ AUX)
    Blend: AUG-CC-PVDZ-JKFIT
  @DF-RHF Final Energy:  -227.84408662154897
    Total Energy =                       -227.8440866215489677
  //            Monomer B HF           //
    Molecular point group: c1

    Geometry (in Bohr), charge = 0, multiplicity = 1:

       Center              X                  Y                   Z               Mass
    ------------   -----------------  -----------------  -----------------  -----------------
      Gh(O)          -5.531022370000     2.939402900000     1.977626240000    15.994914619570
      Gh(O)          -2.407088860000     0.908177340000     0.049059090000    15.994914619570
      Gh(H)          -0.503048870000     1.375792050000     4.638809080000     1.007825032230
      Gh(H)           0.000000000000     4.251042850000     3.090722380000     1.007825032230
      Gh(H)          -2.389482150000     4.019167790000     5.401950410000     1.007825032230
      Gh(H)          -3.747714110000     0.471479300000    -1.215575120000     1.007825032230
      Gh(C)          -1.418597820000     2.985005000000     3.844051900000    12.000000000000
      Gh(C)          -3.322637810000     2.286288140000     1.912214130000    12.000000000000
         O          -17.961360050000     4.944349300000    -3.473383250000    15.994914619570
         O          -21.085293560000     6.975574870000    -5.401950410000    15.994914619570
         H          -22.989333540000     6.507960150000    -0.812200410000     1.007825032230
         H          -23.492382420000     3.632709350000    -2.360287110000     1.007825032230
         H          -21.102900270000     3.864584410000    -0.049059090000     1.007825032230
         H          -19.744668310000     7.412272900000    -6.666584610000     1.007825032230
         C          -22.073784590000     4.898747200000    -1.606957600000    12.000000000000
         C          -20.169744600000     5.597464060000    -3.538795360000    12.000000000000

  Charge       = 0
  Multiplicity = 1
  Basis Set: AUG-CC-PVDZ
    Blend: AUG-CC-PVDZ
  Basis Set: (AUG-CC-PVDZ AUX)
    Blend: AUG-CC-PVDZ-JKFIT

    Orbital Energies [Eh]
    ---------------------

    Doubly Occupied:

       1A    -20.629476     2A    -20.552804     3A    -11.396108
       4A    -11.250979     5A     -1.475852     6A     -1.357486
       7A     -1.032999     8A     -0.837930     9A     -0.703065
      10A     -0.688465    11A     -0.657749    12A     -0.576538
      13A     -0.569697    14A     -0.561403    15A     -0.475343
      16A     -0.452433

  @DF-RHF Final Energy:  -227.84408664415983

   => Energetics <=

    Nuclear Repulsion Energy =            121.7484302078367051
    One-Electron Energy =                -552.7483787193249327
    Two-Electron Energy =                 203.1558618673284116
    Total Energy =                       -227.8440866441598303

  Dipole Moment: [D]
     X:    -2.1047      Y:     0.7191      Z:    -0.2116     Total:     2.2342

    SAPT Results
  --------------------------------------------------------------------------------------------------------
    Electrostatics                  0.47529878 [mEh]       0.29825449 [kcal/mol]       1.24789677 [kJ/mol]
      Elst10,r                      0.47529878 [mEh]       0.29825449 [kcal/mol]       1.24789677 [kJ/mol]

    Exchange                        0.00000117 [mEh]       0.00000073 [kcal/mol]       0.00000307 [kJ/mol]
      Exch10                        0.00000117 [mEh]       0.00000073 [kcal/mol]       0.00000307 [kJ/mol]
      Exch10(S^2)                   0.00000117 [mEh]       0.00000073 [kcal/mol]       0.00000307 [kJ/mol]

    Induction                      -0.00693002 [mEh]      -0.00434865 [kcal/mol]      -0.01819476 [kJ/mol]
      Ind20,r                      -0.00708529 [mEh]      -0.00444609 [kcal/mol]      -0.01860243 [kJ/mol]
      Exch-Ind20,r                  0.00000253 [mEh]       0.00000159 [kcal/mol]       0.00000663 [kJ/mol]
      delta HF,r (2)                0.00015275 [mEh]       0.00009585 [kcal/mol]       0.00040104 [kJ/mol]

    Dispersion                     -0.01953475 [mEh]      -0.01225824 [kcal/mol]      -0.05128849 [kJ/mol]
      Disp20                       -0.01953498 [mEh]      -0.01225839 [kcal/mol]      -0.05128909 [kJ/mol]
      Exch-Disp20                   0.00000023 [mEh]       0.00000014 [kcal/mol]       0.00000060 [kJ/mol]
      Disp20 (SS)                  -0.00976749 [mEh]      -0.00612919 [kcal/mol]      -0.02564454 [kJ/mol]
      Disp20 (OS)                  -0.00976749 [mEh]      -0.00612919 [kcal/mol]      -0.02564454 [kJ/mol]
      Exch-Disp20 (SS)              0.00000018 [mEh]       0.00000011 [kcal/mol]       0.00000048 [kJ/mol]
      Exch-Disp20 (OS)              0.00000005 [mEh]       0.00000003 [kcal/mol]       0.00000012 [kJ/mol]

  Total HF                          0.46836993 [mEh]       0.29390657 [kcal/mol]       1.22970508 [kJ/mol]
  Total SAPT0                       0.44883518 [mEh]       0.28164833 [kcal/mol]       1.17841659 [kJ/mol]

  Special recipe for scaled SAPT0 (see Manual):
    Electrostatics sSAPT0           0.47529878 [mEh]       0.29825449 [kcal/mol]       1.24789677 [kJ/mol]
    Exchange sSAPT0                 0.00000117 [mEh]       0.00000073 [kcal/mol]       0.00000307 [kJ/mol]
    Induction sSAPT0               -0.00693002 [mEh]      -0.00434865 [kcal/mol]      -0.01819476 [kJ/mol]
    Dispersion sSAPT0              -0.01953475 [mEh]      -0.01225824 [kcal/mol]      -0.05128849 [kJ/mol]
  Total sSAPT0                      0.44883518 [mEh]       0.28164833 [kcal/mol]       1.17841659 [kJ/mol]
  --------------------------------------------------------------------------------------------------------

*** Psi4 exiting successfully. Buy a developer a beer!
