                               Psi4 1.4rc3

  ==> Input File <==

--------------------------------------------------------------------------
# PSI4 file produced by CrystaLattE

# Generated from:               acetic_acid.xyz
# Psithon input for N-mer:      2mer-0+24
# Number of atoms per monomer:  [8, 8]
# Number of replicas:           2
# COM priority:                 1.524305295720e-04
# Minimum COM separations:      9.906
# Separation priority:          5.552637177054e-04
# Minimum monomer separations:  6.438
# Cutoff priority:              4.563860859091e-05
# Nuclear repulsion energy:     298.7200441539085

memory 7 GB

molecule Dimer_0_24 {
  O           -5.53102237       2.93940290       1.97762624
  O           -2.40708886       0.90817734       0.04905909
  H           -0.50304887       1.37579205       4.63880908
  H            0.00000000       4.25104285       3.09072238
  H           -2.38948215       4.01916779       5.40195041
  H           -3.74771411       0.47147930      -1.21557512
  C           -1.41859782       2.98500500       3.84405190
  C           -3.32263781       2.28628814       1.91221413
--
  O            7.19108365      -2.78481953     -14.37540224
  O            4.06715015      -0.75359396     -16.30396940
  H            2.16311016      -1.22120867     -11.71421941
  H            1.66006128      -4.09645948     -13.26230610
  H            4.04954344      -3.86458441     -10.95107808
  H            5.40777540      -0.31689592     -17.56860360
  C            3.07865911      -2.83042162     -12.50897659
  C            4.98269910      -2.13170476     -14.44081435
units = au
no_com
no_reorient
}

set {
  e_convergence 10
  d_convergence 10
  scf_type df
  mp2_type df
  cc_type df
  freeze_core true
}

energy('sapt0/aug-cc-pvdz')

--------------------------------------------------------------------------

  //              Dimer HF             //
    Molecular point group: c1
  Charge       = 0
  Multiplicity = 1
  Basis Set: AUG-CC-PVDZ
    Blend: AUG-CC-PVDZ
  Basis Set: (AUG-CC-PVDZ AUX)
    Blend: AUG-CC-PVDZ-JKFIT
  @DF-RHF Final Energy:  -455.68809741704712
    Total Energy =                       -455.6880974170471177
  //            Monomer A HF           //
    Molecular point group: c1
  Multiplicity = 1
  Basis Set: AUG-CC-PVDZ
    Blend: AUG-CC-PVDZ
  Basis Set: (AUG-CC-PVDZ AUX)
    Blend: AUG-CC-PVDZ-JKFIT
  @DF-RHF Final Energy:  -227.84409119128495
    Total Energy =                       -227.8440911912849458
  //            Monomer B HF           //
    Molecular point group: c1

    Geometry (in Bohr), charge = 0, multiplicity = 1:

       Center              X                  Y                   Z               Mass
    ------------   -----------------  -----------------  -----------------  -----------------
      Gh(O)          -5.531022370000     2.939402900000     1.977626240000    15.994914619570
      Gh(O)          -2.407088860000     0.908177340000     0.049059090000    15.994914619570
      Gh(H)          -0.503048870000     1.375792050000     4.638809080000     1.007825032230
      Gh(H)           0.000000000000     4.251042850000     3.090722380000     1.007825032230
      Gh(H)          -2.389482150000     4.019167790000     5.401950410000     1.007825032230
      Gh(H)          -3.747714110000     0.471479300000    -1.215575120000     1.007825032230
      Gh(C)          -1.418597820000     2.985005000000     3.844051900000    12.000000000000
      Gh(C)          -3.322637810000     2.286288140000     1.912214130000    12.000000000000
         O            7.191083650000    -2.784819530000   -14.375402240000    15.994914619570
         O            4.067150150000    -0.753593960000   -16.303969400000    15.994914619570
         H            2.163110160000    -1.221208670000   -11.714219410000     1.007825032230
         H            1.660061280000    -4.096459480000   -13.262306100000     1.007825032230
         H            4.049543440000    -3.864584410000   -10.951078080000     1.007825032230
         H            5.407775400000    -0.316895920000   -17.568603600000     1.007825032230
         C            3.078659110000    -2.830421620000   -12.508976590000    12.000000000000
         C            4.982699100000    -2.131704760000   -14.440814350000    12.000000000000

  Charge       = 0
  Multiplicity = 1
  Basis Set: AUG-CC-PVDZ
    Blend: AUG-CC-PVDZ
  Basis Set: (AUG-CC-PVDZ AUX)
    Blend: AUG-CC-PVDZ-JKFIT

    Orbital Energies [Eh]
    ---------------------

    Doubly Occupied:

       1A    -20.629476     2A    -20.552804     3A    -11.396109
       4A    -11.250975     5A     -1.475852     6A     -1.357486
       7A     -1.033000     8A     -0.837930     9A     -0.703065
      10A     -0.688465    11A     -0.657749    12A     -0.576538
      13A     -0.569697    14A     -0.561403    15A     -0.475343
      16A     -0.452434

  @DF-RHF Final Energy:  -227.84408857757711

   => Energetics <=

    Nuclear Repulsion Energy =            121.7484302752746004
    One-Electron Energy =                -552.7483856405636971
    Two-Electron Energy =                 203.1558667877120001
    Total Energy =                       -227.8440885775771108

  Dipole Moment: [D]
     X:    -2.1047      Y:     0.7191      Z:    -0.2115     Total:     2.2342

    SAPT Results
  --------------------------------------------------------------------------------------------------------
    Electrostatics                  0.08372183 [mEh]       0.05253624 [kcal/mol]       0.21981162 [kJ/mol]
      Elst10,r                      0.08372183 [mEh]       0.05253624 [kcal/mol]       0.21981162 [kJ/mol]

    Exchange                        0.00000426 [mEh]       0.00000267 [kcal/mol]       0.00001118 [kJ/mol]
      Exch10                        0.00000426 [mEh]       0.00000267 [kcal/mol]       0.00001118 [kJ/mol]
      Exch10(S^2)                   0.00000426 [mEh]       0.00000267 [kcal/mol]       0.00001118 [kJ/mol]

    Induction                      -0.00137427 [mEh]      -0.00086237 [kcal/mol]      -0.00360814 [kJ/mol]
      Ind20,r                      -0.00132383 [mEh]      -0.00083072 [kcal/mol]      -0.00347572 [kJ/mol]
      Exch-Ind20,r                  0.00000841 [mEh]       0.00000528 [kcal/mol]       0.00002207 [kJ/mol]
      delta HF,r (2)               -0.00005884 [mEh]      -0.00003692 [kcal/mol]      -0.00015449 [kJ/mol]

    Dispersion                     -0.02034882 [mEh]      -0.01276908 [kcal/mol]      -0.05342582 [kJ/mol]
      Disp20                       -0.02034947 [mEh]      -0.01276948 [kcal/mol]      -0.05342751 [kJ/mol]
      Exch-Disp20                   0.00000065 [mEh]       0.00000041 [kcal/mol]       0.00000170 [kJ/mol]
      Disp20 (SS)                  -0.01017473 [mEh]      -0.00638474 [kcal/mol]      -0.02671376 [kJ/mol]
      Disp20 (OS)                  -0.01017473 [mEh]      -0.00638474 [kcal/mol]      -0.02671376 [kJ/mol]
      Exch-Disp20 (SS)              0.00000054 [mEh]       0.00000034 [kcal/mol]       0.00000140 [kJ/mol]
      Exch-Disp20 (OS)              0.00000011 [mEh]       0.00000007 [kcal/mol]       0.00000029 [kJ/mol]

  Total HF                          0.08235181 [mEh]       0.05167654 [kcal/mol]       0.21621466 [kJ/mol]
  Total SAPT0                       0.06200300 [mEh]       0.03890747 [kcal/mol]       0.16278884 [kJ/mol]

  Special recipe for scaled SAPT0 (see Manual):
    Electrostatics sSAPT0           0.08372183 [mEh]       0.05253624 [kcal/mol]       0.21981162 [kJ/mol]
    Exchange sSAPT0                 0.00000426 [mEh]       0.00000267 [kcal/mol]       0.00001118 [kJ/mol]
    Induction sSAPT0               -0.00137427 [mEh]      -0.00086237 [kcal/mol]      -0.00360814 [kJ/mol]
    Dispersion sSAPT0              -0.02034882 [mEh]      -0.01276908 [kcal/mol]      -0.05342582 [kJ/mol]
  Total sSAPT0                      0.06200300 [mEh]       0.03890747 [kcal/mol]       0.16278884 [kJ/mol]
  --------------------------------------------------------------------------------------------------------

*** Psi4 exiting successfully. Buy a developer a beer!
