                               Psi4 1.4rc3

  ==> Input File <==

--------------------------------------------------------------------------
# PSI4 file produced by CrystaLattE

# Generated from:               acetic_acid.xyz
# Psithon input for N-mer:      2mer-0+23
# Number of atoms per monomer:  [8, 8]
# Number of replicas:           2
# COM priority:                 3.119562797697e-04
# Minimum COM separations:      7.803
# Separation priority:          1.393036403747e-03
# Minimum monomer separations:  4.738
# Cutoff priority:              1.555786341602e-04
# Nuclear repulsion energy:     313.08089139151036

memory 7 GB

molecule Dimer_0_23 {
  O           -5.53102237       2.93940290       1.97762624
  O           -2.40708886       0.90817734       0.04905909
  H           -0.50304887       1.37579205       4.63880908
  H            0.00000000       4.25104285       3.09072238
  H           -2.38948215       4.01916779       5.40195041
  H           -3.74771411       0.47147930      -1.21557512
  C           -1.41859782       2.98500500       3.84405190
  C           -3.32263781       2.28628814       1.91221413
--
  O            7.19108365      12.67351812      -3.47338325
  O            4.06715015      14.70474369      -5.40195041
  H            2.16311016      14.23712898      -0.81220041
  H            1.66006128      11.36187817      -2.36028711
  H            4.04954344      11.59375324      -0.04905909
  H            5.40777540      15.14144173      -6.66658461
  C            3.07865911      12.62791603      -1.60695760
  C            4.98269910      13.32663289      -3.53879536
units = au
no_com
no_reorient
}

set {
  e_convergence 10
  d_convergence 10
  scf_type df
  mp2_type df
  cc_type df
  freeze_core true
}

energy('sapt0/aug-cc-pvdz')

--------------------------------------------------------------------------

  //              Dimer HF             //
    Molecular point group: c1
  Charge       = 0
  Multiplicity = 1
  Basis Set: AUG-CC-PVDZ
    Blend: AUG-CC-PVDZ
  Basis Set: (AUG-CC-PVDZ AUX)
    Blend: AUG-CC-PVDZ-JKFIT
  @DF-RHF Final Energy:  -455.68820526174670
    Total Energy =                       -455.6882052617467025
  //            Monomer A HF           //
    Molecular point group: c1
  Multiplicity = 1
  Basis Set: AUG-CC-PVDZ
    Blend: AUG-CC-PVDZ
  Basis Set: (AUG-CC-PVDZ AUX)
    Blend: AUG-CC-PVDZ-JKFIT
  @DF-RHF Final Energy:  -227.84410234310687
    Total Energy =                       -227.8441023431068686
  //            Monomer B HF           //
    Molecular point group: c1

    Geometry (in Bohr), charge = 0, multiplicity = 1:

       Center              X                  Y                   Z               Mass
    ------------   -----------------  -----------------  -----------------  -----------------
      Gh(O)          -5.531022370000     2.939402900000     1.977626240000    15.994914619570
      Gh(O)          -2.407088860000     0.908177340000     0.049059090000    15.994914619570
      Gh(H)          -0.503048870000     1.375792050000     4.638809080000     1.007825032230
      Gh(H)           0.000000000000     4.251042850000     3.090722380000     1.007825032230
      Gh(H)          -2.389482150000     4.019167790000     5.401950410000     1.007825032230
      Gh(H)          -3.747714110000     0.471479300000    -1.215575120000     1.007825032230
      Gh(C)          -1.418597820000     2.985005000000     3.844051900000    12.000000000000
      Gh(C)          -3.322637810000     2.286288140000     1.912214130000    12.000000000000
         O            7.191083650000    12.673518120000    -3.473383250000    15.994914619570
         O            4.067150150000    14.704743690000    -5.401950410000    15.994914619570
         H            2.163110160000    14.237128980000    -0.812200410000     1.007825032230
         H            1.660061280000    11.361878170000    -2.360287110000     1.007825032230
         H            4.049543440000    11.593753240000    -0.049059090000     1.007825032230
         H            5.407775400000    15.141441730000    -6.666584610000     1.007825032230
         C            3.078659110000    12.627916030000    -1.606957600000    12.000000000000
         C            4.982699100000    13.326632890000    -3.538795360000    12.000000000000

  Charge       = 0
  Multiplicity = 1
  Basis Set: AUG-CC-PVDZ
    Blend: AUG-CC-PVDZ
  Basis Set: (AUG-CC-PVDZ AUX)
    Blend: AUG-CC-PVDZ-JKFIT

    Orbital Energies [Eh]
    ---------------------

    Doubly Occupied:

       1A    -20.629478     2A    -20.552806     3A    -11.396106
       4A    -11.250966     5A     -1.475852     6A     -1.357485
       7A     -1.033000     8A     -0.837930     9A     -0.703064
      10A     -0.688464    11A     -0.657748    12A     -0.576538
      13A     -0.569698    14A     -0.561404    15A     -0.475344
      16A     -0.452433

  @DF-RHF Final Energy:  -227.84410053881419

   => Energetics <=

    Nuclear Repulsion Energy =            121.7484302625347254
    One-Electron Energy =                -552.7484346207179442
    Two-Electron Energy =                 203.1559038193690299
    Total Energy =                       -227.8441005388141889

  Dipole Moment: [D]
     X:    -2.1049      Y:     0.7190      Z:    -0.2118     Total:     2.2343

    SAPT Results
  --------------------------------------------------------------------------------------------------------
    Electrostatics                  0.00323412 [mEh]       0.00202944 [kcal/mol]       0.00849119 [kJ/mol]
      Elst10,r                      0.00323412 [mEh]       0.00202944 [kcal/mol]       0.00849119 [kJ/mol]

    Exchange                        0.00026772 [mEh]       0.00016800 [kcal/mol]       0.00070291 [kJ/mol]
      Exch10                        0.00026772 [mEh]       0.00016800 [kcal/mol]       0.00070291 [kJ/mol]
      Exch10(S^2)                   0.00026772 [mEh]       0.00016800 [kcal/mol]       0.00070291 [kJ/mol]

    Induction                      -0.00588167 [mEh]      -0.00369081 [kcal/mol]      -0.01544233 [kJ/mol]
      Ind20,r                      -0.00565947 [mEh]      -0.00355137 [kcal/mol]      -0.01485894 [kJ/mol]
      Exch-Ind20,r                  0.00003051 [mEh]       0.00001915 [kcal/mol]       0.00008012 [kJ/mol]
      delta HF,r (2)               -0.00025272 [mEh]      -0.00015858 [kcal/mol]      -0.00066350 [kJ/mol]

    Dispersion                     -0.09944687 [mEh]      -0.06240385 [kcal/mol]      -0.26109772 [kJ/mol]
      Disp20                       -0.09948980 [mEh]      -0.06243079 [kcal/mol]      -0.26121044 [kJ/mol]
      Exch-Disp20                   0.00004294 [mEh]       0.00002694 [kcal/mol]       0.00011273 [kJ/mol]
      Disp20 (SS)                  -0.04974490 [mEh]      -0.03121540 [kcal/mol]      -0.13060522 [kJ/mol]
      Disp20 (OS)                  -0.04974490 [mEh]      -0.03121540 [kcal/mol]      -0.13060522 [kJ/mol]
      Exch-Disp20 (SS)              0.00003449 [mEh]       0.00002164 [kcal/mol]       0.00009055 [kJ/mol]
      Exch-Disp20 (OS)              0.00000845 [mEh]       0.00000530 [kcal/mol]       0.00002218 [kJ/mol]

  Total HF                         -0.00237983 [mEh]      -0.00149336 [kcal/mol]      -0.00624823 [kJ/mol]
  Total SAPT0                      -0.10182669 [mEh]      -0.06389722 [kcal/mol]      -0.26734595 [kJ/mol]

  Special recipe for scaled SAPT0 (see Manual):
    Electrostatics sSAPT0           0.00323412 [mEh]       0.00202944 [kcal/mol]       0.00849119 [kJ/mol]
    Exchange sSAPT0                 0.00026772 [mEh]       0.00016800 [kcal/mol]       0.00070291 [kJ/mol]
    Induction sSAPT0               -0.00588167 [mEh]      -0.00369081 [kcal/mol]      -0.01544233 [kJ/mol]
    Dispersion sSAPT0              -0.09944687 [mEh]      -0.06240385 [kcal/mol]      -0.26109772 [kJ/mol]
  Total sSAPT0                     -0.10182669 [mEh]      -0.06389722 [kcal/mol]      -0.26734595 [kJ/mol]
  --------------------------------------------------------------------------------------------------------

*** Psi4 exiting successfully. Buy a developer a beer!
