                               Psi4 1.4rc3

  ==> Input File <==

--------------------------------------------------------------------------
# PSI4 file produced by CrystaLattE

# Generated from:               acetic_acid.xyz
# Psithon input for N-mer:      2mer-0+3
# Number of atoms per monomer:  [8, 8]
# Number of replicas:           2
# COM priority:                 2.165716569902e-03
# Minimum COM separations:      4.090
# Separation priority:          7.452392524137e-03
# Minimum monomer separations:  2.709
# Cutoff priority:              1.455663398006e-03
# Nuclear repulsion energy:     368.871498423046

memory 7 GB

molecule Dimer_0_3 {
  O           -5.53102237       2.93940290       1.97762624
  O           -2.40708886       0.90817734       0.04905909
  H           -0.50304887       1.37579205       4.63880908
  H            0.00000000       4.25104285       3.09072238
  H           -2.38948215       4.01916779       5.40195041
  H           -3.74771411       0.47147930      -1.21557512
  C           -1.41859782       2.98500500       3.84405190
  C           -3.32263781       2.28628814       1.91221413
--
  O           -5.53102237      -4.78976592       1.97762624
  O           -2.40708886      -6.82099149       0.04905909
  H           -0.50304887      -6.35337677       4.63880908
  H            0.00000000      -3.47812597       3.09072238
  H           -2.38948215      -3.71000104       5.40195041
  H           -3.74771411      -7.25768953      -1.21557512
  C           -1.41859782      -4.74416383       3.84405190
  C           -3.32263781      -5.44288069       1.91221413
units = au
no_com
no_reorient
}

set {
  e_convergence 10
  d_convergence 10
  scf_type df
  mp2_type df
  cc_type df
  freeze_core true
}

energy('sapt0/aug-cc-pvdz')

--------------------------------------------------------------------------

  //              Dimer HF             //
    Molecular point group: c1
  Charge       = 0
  Multiplicity = 1
  Basis Set: AUG-CC-PVDZ
    Blend: AUG-CC-PVDZ
  Basis Set: (AUG-CC-PVDZ AUX)
    Blend: AUG-CC-PVDZ-JKFIT
  @DF-RHF Final Energy:  -455.68737695438256
    Total Energy =                       -455.6873769543825574
  //            Monomer A HF           //
    Molecular point group: c1
  Multiplicity = 1
  Basis Set: AUG-CC-PVDZ
    Blend: AUG-CC-PVDZ
  Basis Set: (AUG-CC-PVDZ AUX)
    Blend: AUG-CC-PVDZ-JKFIT
  @DF-RHF Final Energy:  -227.84440380204839
    Total Energy =                       -227.8444038020483902
  //            Monomer B HF           //
    Molecular point group: c1

    Geometry (in Bohr), charge = 0, multiplicity = 1:

       Center              X                  Y                   Z               Mass
    ------------   -----------------  -----------------  -----------------  -----------------
      Gh(O)          -5.531022370000     2.939402900000     1.977626240000    15.994914619570
      Gh(O)          -2.407088860000     0.908177340000     0.049059090000    15.994914619570
      Gh(H)          -0.503048870000     1.375792050000     4.638809080000     1.007825032230
      Gh(H)           0.000000000000     4.251042850000     3.090722380000     1.007825032230
      Gh(H)          -2.389482150000     4.019167790000     5.401950410000     1.007825032230
      Gh(H)          -3.747714110000     0.471479300000    -1.215575120000     1.007825032230
      Gh(C)          -1.418597820000     2.985005000000     3.844051900000    12.000000000000
      Gh(C)          -3.322637810000     2.286288140000     1.912214130000    12.000000000000
         O           -5.531022370000    -4.789765920000     1.977626240000    15.994914619570
         O           -2.407088860000    -6.820991490000     0.049059090000    15.994914619570
         H           -0.503048870000    -6.353376770000     4.638809080000     1.007825032230
         H            0.000000000000    -3.478125970000     3.090722380000     1.007825032230
         H           -2.389482150000    -3.710001040000     5.401950410000     1.007825032230
         H           -3.747714110000    -7.257689530000    -1.215575120000     1.007825032230
         C           -1.418597820000    -4.744163830000     3.844051900000    12.000000000000
         C           -3.322637810000    -5.442880690000     1.912214130000    12.000000000000

  Charge       = 0
  Multiplicity = 1
  Basis Set: AUG-CC-PVDZ
    Blend: AUG-CC-PVDZ
  Basis Set: (AUG-CC-PVDZ AUX)
    Blend: AUG-CC-PVDZ-JKFIT

    Orbital Energies [Eh]
    ---------------------

    Doubly Occupied:

       1A    -20.629530     2A    -20.552941     3A    -11.396072
       4A    -11.250769     5A     -1.475810     6A     -1.357432
       7A     -1.032983     8A     -0.837896     9A     -0.703016
      10A     -0.688425    11A     -0.657734    12A     -0.576506
      13A     -0.569678    14A     -0.561387    15A     -0.475322
      16A     -0.452406

  @DF-RHF Final Energy:  -227.84440465127952

   => Energetics <=

    Nuclear Repulsion Energy =            121.7484301666480633
    One-Electron Energy =                -552.7498610944278425
    Two-Electron Energy =                 203.1570262765002610
    Total Energy =                       -227.8444046512795182

  Dipole Moment: [D]
     X:     2.1002      Y:    -0.7217      Z:    -0.2100     Total:     2.2306

    SAPT Results
  --------------------------------------------------------------------------------------------------------
    Electrostatics                  0.05664424 [mEh]       0.03554480 [kcal/mol]       0.14871942 [kJ/mol]
      Elst10,r                      0.05664424 [mEh]       0.03554480 [kcal/mol]       0.14871942 [kJ/mol]

    Exchange                        1.66515063 [mEh]       1.04489779 [kcal/mol]       4.37185237 [kJ/mol]
      Exch10                        1.66515063 [mEh]       1.04489779 [kcal/mol]       4.37185237 [kJ/mol]
      Exch10(S^2)                   1.66406946 [mEh]       1.04421935 [kcal/mol]       4.36901378 [kJ/mol]

    Induction                      -0.29029592 [mEh]      -0.18216344 [kcal/mol]      -0.76217183 [kJ/mol]
      Ind20,r                      -0.54037622 [mEh]      -0.33909119 [kcal/mol]      -1.41875756 [kJ/mol]
      Exch-Ind20,r                  0.31342879 [mEh]       0.19667953 [kcal/mol]       0.82290717 [kJ/mol]
      delta HF,r (2)               -0.06334849 [mEh]      -0.03975178 [kcal/mol]      -0.16632144 [kJ/mol]

    Dispersion                     -3.13413839 [mEh]      -1.96670153 [kcal/mol]      -8.22867921 [kJ/mol]
      Disp20                       -3.30843799 [mEh]      -2.07607618 [kcal/mol]      -8.68630275 [kJ/mol]
      Exch-Disp20                   0.17429960 [mEh]       0.10937465 [kcal/mol]       0.45762353 [kJ/mol]
      Disp20 (SS)                  -1.65421900 [mEh]      -1.03803809 [kcal/mol]      -4.34315137 [kJ/mol]
      Disp20 (OS)                  -1.65421900 [mEh]      -1.03803809 [kcal/mol]      -4.34315137 [kJ/mol]
      Exch-Disp20 (SS)              0.11561013 [mEh]       0.07254645 [kcal/mol]       0.30353436 [kJ/mol]
      Exch-Disp20 (OS)              0.05868946 [mEh]       0.03682820 [kcal/mol]       0.15408917 [kJ/mol]

  Total HF                          1.43149895 [mEh]       0.89827915 [kcal/mol]       3.75839996 [kJ/mol]
  Total SAPT0                      -1.70263945 [mEh]      -1.06842238 [kcal/mol]      -4.47027925 [kJ/mol]

  Special recipe for scaled SAPT0 (see Manual):
    Electrostatics sSAPT0           0.05664424 [mEh]       0.03554480 [kcal/mol]       0.14871942 [kJ/mol]
    Exchange sSAPT0                 1.66515063 [mEh]       1.04489779 [kcal/mol]       4.37185237 [kJ/mol]
    Induction sSAPT0               -0.28968461 [mEh]      -0.18177984 [kcal/mol]      -0.76056683 [kJ/mol]
    Dispersion sSAPT0              -3.13379844 [mEh]      -1.96648821 [kcal/mol]      -8.22778667 [kJ/mol]
  Total sSAPT0                     -1.70168818 [mEh]      -1.06782546 [kcal/mol]      -4.46778171 [kJ/mol]
  --------------------------------------------------------------------------------------------------------

*** Psi4 exiting successfully. Buy a developer a beer!
