                               Psi4 1.4rc3

  ==> Input File <==

--------------------------------------------------------------------------
# PSI4 file produced by CrystaLattE

# Generated from:               acetic_acid.xyz
# Psithon input for N-mer:      2mer-0+224
# Number of atoms per monomer:  [8, 8]
# Number of replicas:           2
# COM priority:                 2.608083519538e-05
# Minimum COM separations:      17.844
# Separation priority:          5.427336357514e-05
# Minimum monomer separations:  13.977
# Cutoff priority:              2.054860372257e-06
# Nuclear repulsion energy:     273.92875856448984

memory 7 GB

molecule Dimer_0_224 {
  O           -5.53102237       2.93940290       1.97762624
  O           -2.40708886       0.90817734       0.04905909
  H           -0.50304887       1.37579205       4.63880908
  H            0.00000000       4.25104285       3.09072238
  H           -2.38948215       4.01916779       5.40195041
  H           -3.74771411       0.47147930      -1.21557512
  C           -1.41859782       2.98500500       3.84405190
  C           -3.32263781       2.28628814       1.91221413
--
  O           -5.38513820     -16.38351916     -25.27742123
  O           -8.50907170     -18.41474473     -27.20598839
  H          -10.41311169     -17.94713001     -22.61623840
  H          -10.91616057     -15.07187921     -24.16432509
  H           -8.52667842     -15.30375427     -21.85309707
  H           -7.16844646     -18.85144277     -28.47062259
  C           -9.49756274     -16.33791706     -23.41099558
  C           -7.59352275     -17.03663393     -25.34283335
units = au
no_com
no_reorient
}

set {
  e_convergence 10
  d_convergence 10
  scf_type df
  mp2_type df
  cc_type df
  freeze_core true
}

energy('sapt0/aug-cc-pvdz')

--------------------------------------------------------------------------

  //              Dimer HF             //
    Molecular point group: c1
  Charge       = 0
  Multiplicity = 1
  Basis Set: AUG-CC-PVDZ
    Blend: AUG-CC-PVDZ
  Basis Set: (AUG-CC-PVDZ AUX)
    Blend: AUG-CC-PVDZ-JKFIT
  @DF-RHF Final Energy:  -455.68819203093597
    Total Energy =                       -455.6881920309359657
  //            Monomer A HF           //
    Molecular point group: c1
  Multiplicity = 1
  Basis Set: AUG-CC-PVDZ
    Blend: AUG-CC-PVDZ
  Basis Set: (AUG-CC-PVDZ AUX)
    Blend: AUG-CC-PVDZ-JKFIT
  @DF-RHF Final Energy:  -227.84408589676997
    Total Energy =                       -227.8440858967699683
  //            Monomer B HF           //
    Molecular point group: c1

    Geometry (in Bohr), charge = 0, multiplicity = 1:

       Center              X                  Y                   Z               Mass
    ------------   -----------------  -----------------  -----------------  -----------------
      Gh(O)          -5.531022370000     2.939402900000     1.977626240000    15.994914619570
      Gh(O)          -2.407088860000     0.908177340000     0.049059090000    15.994914619570
      Gh(H)          -0.503048870000     1.375792050000     4.638809080000     1.007825032230
      Gh(H)           0.000000000000     4.251042850000     3.090722380000     1.007825032230
      Gh(H)          -2.389482150000     4.019167790000     5.401950410000     1.007825032230
      Gh(H)          -3.747714110000     0.471479300000    -1.215575120000     1.007825032230
      Gh(C)          -1.418597820000     2.985005000000     3.844051900000    12.000000000000
      Gh(C)          -3.322637810000     2.286288140000     1.912214130000    12.000000000000
         O           -5.385138200000   -16.383519160000   -25.277421230000    15.994914619570
         O           -8.509071700000   -18.414744730000   -27.205988390000    15.994914619570
         H          -10.413111690000   -17.947130010000   -22.616238400000     1.007825032230
         H          -10.916160570000   -15.071879210000   -24.164325090000     1.007825032230
         H           -8.526678420000   -15.303754270000   -21.853097070000     1.007825032230
         H           -7.168446460000   -18.851442770000   -28.470622590000     1.007825032230
         C           -9.497562740000   -16.337917060000   -23.410995580000    12.000000000000
         C           -7.593522750000   -17.036633930000   -25.342833350000    12.000000000000

  Charge       = 0
  Multiplicity = 1
  Basis Set: AUG-CC-PVDZ
    Blend: AUG-CC-PVDZ
  Basis Set: (AUG-CC-PVDZ AUX)
    Blend: AUG-CC-PVDZ-JKFIT

    Orbital Energies [Eh]
    ---------------------

    Doubly Occupied:

       1A    -20.629476     2A    -20.552804     3A    -11.396108
       4A    -11.250979     5A     -1.475853     6A     -1.357486
       7A     -1.032999     8A     -0.837930     9A     -0.703065
      10A     -0.688465    11A     -0.657749    12A     -0.576538
      13A     -0.569697    14A     -0.561403    15A     -0.475343
      16A     -0.452434

  @DF-RHF Final Energy:  -227.84408589536247

   => Energetics <=

    Nuclear Repulsion Energy =            121.7484302991578460
    One-Electron Energy =                -552.7483715957214372
    Two-Electron Energy =                 203.1558554012011086
    Total Energy =                       -227.8440858953624684

  Dipole Moment: [D]
     X:    -2.1048      Y:    -0.7191      Z:    -0.2116     Total:     2.2342

    SAPT Results
  --------------------------------------------------------------------------------------------------------
    Electrostatics                 -0.02019190 [mEh]      -0.01267061 [kcal/mol]      -0.05301382 [kJ/mol]
      Elst10,r                     -0.02019190 [mEh]      -0.01267061 [kcal/mol]      -0.05301382 [kJ/mol]

    Exchange                       -0.00000000 [mEh]      -0.00000000 [kcal/mol]      -0.00000000 [kJ/mol]
      Exch10                       -0.00000000 [mEh]      -0.00000000 [kcal/mol]      -0.00000000 [kJ/mol]
      Exch10(S^2)                  -0.00000000 [mEh]      -0.00000000 [kcal/mol]      -0.00000000 [kJ/mol]

    Induction                      -0.00004690 [mEh]      -0.00002943 [kcal/mol]      -0.00012315 [kJ/mol]
      Ind20,r                      -0.00002929 [mEh]      -0.00001838 [kcal/mol]      -0.00007689 [kJ/mol]
      Exch-Ind20,r                  0.00000000 [mEh]       0.00000000 [kcal/mol]       0.00000000 [kJ/mol]
      delta HF,r (2)               -0.00001762 [mEh]      -0.00001106 [kcal/mol]      -0.00004626 [kJ/mol]

    Dispersion                     -0.00042975 [mEh]      -0.00026967 [kcal/mol]      -0.00112831 [kJ/mol]
      Disp20                       -0.00042975 [mEh]      -0.00026967 [kcal/mol]      -0.00112831 [kJ/mol]
      Exch-Disp20                   0.00000000 [mEh]       0.00000000 [kcal/mol]       0.00000000 [kJ/mol]
      Disp20 (SS)                  -0.00021488 [mEh]      -0.00013484 [kcal/mol]      -0.00056416 [kJ/mol]
      Disp20 (OS)                  -0.00021488 [mEh]      -0.00013484 [kcal/mol]      -0.00056416 [kJ/mol]
      Exch-Disp20 (SS)              0.00000000 [mEh]       0.00000000 [kcal/mol]       0.00000000 [kJ/mol]
      Exch-Disp20 (OS)              0.00000000 [mEh]       0.00000000 [kcal/mol]       0.00000000 [kJ/mol]

  Total HF                         -0.02023880 [mEh]      -0.01270004 [kcal/mol]      -0.05313697 [kJ/mol]
  Total SAPT0                      -0.02066855 [mEh]      -0.01296971 [kcal/mol]      -0.05426528 [kJ/mol]

  Special recipe for scaled SAPT0 (see Manual):
    Electrostatics sSAPT0          -0.02019190 [mEh]      -0.01267061 [kcal/mol]      -0.05301382 [kJ/mol]
    Exchange sSAPT0                -0.00000000 [mEh]      -0.00000000 [kcal/mol]      -0.00000000 [kJ/mol]
    Induction sSAPT0               -0.00004690 [mEh]      -0.00002943 [kcal/mol]      -0.00012315 [kJ/mol]
    Dispersion sSAPT0              -0.00042975 [mEh]      -0.00026967 [kcal/mol]      -0.00112831 [kJ/mol]
  Total sSAPT0                     -0.02066855 [mEh]      -0.01296971 [kcal/mol]      -0.05426528 [kJ/mol]
  --------------------------------------------------------------------------------------------------------

*** Psi4 exiting successfully. Buy a developer a beer!
