                               Psi4 1.4rc3

  ==> Input File <==

--------------------------------------------------------------------------
# PSI4 file produced by CrystaLattE

# Generated from:               acetic_acid.xyz
# Psithon input for N-mer:      2mer-0+416
# Number of atoms per monomer:  [8, 8]
# Number of replicas:           2
# COM priority:                 1.470748822775e-05
# Minimum COM separations:      21.598
# Separation priority:          2.507826136117e-05
# Minimum monomer separations:  18.079
# Cutoff priority:              7.340571934816e-07
# Nuclear repulsion energy:     268.6210140774547

memory 7 GB

molecule Dimer_0_416 {
  O           -5.53102237       2.93940290       1.97762624
  O           -2.40708886       0.90817734       0.04905909
  H           -0.50304887       1.37579205       4.63880908
  H            0.00000000       4.25104285       3.09072238
  H           -2.38948215       4.01916779       5.40195041
  H           -3.74771411       0.47147930      -1.21557512
  C           -1.41859782       2.98500500       3.84405190
  C           -3.32263781       2.28628814       1.91221413
--
  O            7.19108365     -10.51398835     -36.17944022
  O            4.06715015      -8.48276279     -38.10800738
  H            2.16311016      -8.95037750     -33.51825739
  H            1.66006128     -11.82562830     -35.06634408
  H            4.04954344     -11.59375324     -32.75511606
  H            5.40777540      -8.04606475     -39.37264158
  C            3.07865911     -10.55959045     -34.31301457
  C            4.98269910      -9.86087359     -36.24485234
units = au
no_com
no_reorient
}

set {
  e_convergence 10
  d_convergence 10
  scf_type df
  mp2_type df
  cc_type df
  freeze_core true
}

energy('sapt0/aug-cc-pvdz')

--------------------------------------------------------------------------

  //              Dimer HF             //
    Molecular point group: c1
  Charge       = 0
  Multiplicity = 1
  Basis Set: AUG-CC-PVDZ
    Blend: AUG-CC-PVDZ
  Basis Set: (AUG-CC-PVDZ AUX)
    Blend: AUG-CC-PVDZ-JKFIT
  @DF-RHF Final Energy:  -455.68817406094331
    Total Energy =                       -455.6881740609433109
  //            Monomer A HF           //
    Molecular point group: c1
  Multiplicity = 1
  Basis Set: AUG-CC-PVDZ
    Blend: AUG-CC-PVDZ
  Basis Set: (AUG-CC-PVDZ AUX)
    Blend: AUG-CC-PVDZ-JKFIT
  @DF-RHF Final Energy:  -227.84408589650380
    Total Energy =                       -227.8440858965037989
  //            Monomer B HF           //
    Molecular point group: c1

    Geometry (in Bohr), charge = 0, multiplicity = 1:

       Center              X                  Y                   Z               Mass
    ------------   -----------------  -----------------  -----------------  -----------------
      Gh(O)          -5.531022370000     2.939402900000     1.977626240000    15.994914619570
      Gh(O)          -2.407088860000     0.908177340000     0.049059090000    15.994914619570
      Gh(H)          -0.503048870000     1.375792050000     4.638809080000     1.007825032230
      Gh(H)           0.000000000000     4.251042850000     3.090722380000     1.007825032230
      Gh(H)          -2.389482150000     4.019167790000     5.401950410000     1.007825032230
      Gh(H)          -3.747714110000     0.471479300000    -1.215575120000     1.007825032230
      Gh(C)          -1.418597820000     2.985005000000     3.844051900000    12.000000000000
      Gh(C)          -3.322637810000     2.286288140000     1.912214130000    12.000000000000
         O            7.191083650000   -10.513988350000   -36.179440220000    15.994914619570
         O            4.067150150000    -8.482762790000   -38.108007380000    15.994914619570
         H            2.163110160000    -8.950377500000   -33.518257390000     1.007825032230
         H            1.660061280000   -11.825628300000   -35.066344080000     1.007825032230
         H            4.049543440000   -11.593753240000   -32.755116060000     1.007825032230
         H            5.407775400000    -8.046064750000   -39.372641580000     1.007825032230
         C            3.078659110000   -10.559590450000   -34.313014570000    12.000000000000
         C            4.982699100000    -9.860873590000   -36.244852340000    12.000000000000

  Charge       = 0
  Multiplicity = 1
  Basis Set: AUG-CC-PVDZ
    Blend: AUG-CC-PVDZ
  Basis Set: (AUG-CC-PVDZ AUX)
    Blend: AUG-CC-PVDZ-JKFIT

    Orbital Energies [Eh]
    ---------------------

    Doubly Occupied:

       1A    -20.629476     2A    -20.552804     3A    -11.396108
       4A    -11.250979     5A     -1.475853     6A     -1.357486
       7A     -1.032999     8A     -0.837930     9A     -0.703065
      10A     -0.688465    11A     -0.657749    12A     -0.576538
      13A     -0.569697    14A     -0.561403    15A     -0.475343
      16A     -0.452434

  @DF-RHF Final Energy:  -227.84408589558063

   => Energetics <=

    Nuclear Repulsion Energy =            121.7484303546710720
    One-Electron Energy =                -552.7483717157622323
    Two-Electron Energy =                 203.1558554655105127
    Total Energy =                       -227.8440858955806334

  Dipole Moment: [D]
     X:    -2.1048      Y:     0.7191      Z:    -0.2116     Total:     2.2342

    SAPT Results
  --------------------------------------------------------------------------------------------------------
    Electrostatics                 -0.00224617 [mEh]      -0.00140950 [kcal/mol]      -0.00589733 [kJ/mol]
      Elst10,r                     -0.00224617 [mEh]      -0.00140950 [kcal/mol]      -0.00589733 [kJ/mol]

    Exchange                       -0.00000000 [mEh]      -0.00000000 [kcal/mol]      -0.00000000 [kJ/mol]
      Exch10                       -0.00000000 [mEh]      -0.00000000 [kcal/mol]      -0.00000000 [kJ/mol]
      Exch10(S^2)                  -0.00000000 [mEh]      -0.00000000 [kcal/mol]      -0.00000000 [kJ/mol]

    Induction                      -0.00002269 [mEh]      -0.00001424 [kcal/mol]      -0.00005956 [kJ/mol]
      Ind20,r                      -0.00000752 [mEh]      -0.00000472 [kcal/mol]      -0.00001975 [kJ/mol]
      Exch-Ind20,r                  0.00000000 [mEh]       0.00000000 [kcal/mol]       0.00000000 [kJ/mol]
      delta HF,r (2)               -0.00001516 [mEh]      -0.00000952 [kcal/mol]      -0.00003981 [kJ/mol]

    Dispersion                     -0.00012831 [mEh]      -0.00008052 [kcal/mol]      -0.00033688 [kJ/mol]
      Disp20                       -0.00012831 [mEh]      -0.00008052 [kcal/mol]      -0.00033688 [kJ/mol]
      Exch-Disp20                   0.00000000 [mEh]       0.00000000 [kcal/mol]       0.00000000 [kJ/mol]
      Disp20 (SS)                  -0.00006416 [mEh]      -0.00004026 [kcal/mol]      -0.00016844 [kJ/mol]
      Disp20 (OS)                  -0.00006416 [mEh]      -0.00004026 [kcal/mol]      -0.00016844 [kJ/mol]
      Exch-Disp20 (SS)              0.00000000 [mEh]       0.00000000 [kcal/mol]       0.00000000 [kJ/mol]
      Exch-Disp20 (OS)              0.00000000 [mEh]       0.00000000 [kcal/mol]       0.00000000 [kJ/mol]

  Total HF                         -0.00226886 [mEh]      -0.00142373 [kcal/mol]      -0.00595689 [kJ/mol]
  Total SAPT0                      -0.00239717 [mEh]      -0.00150425 [kcal/mol]      -0.00629377 [kJ/mol]

  Special recipe for scaled SAPT0 (see Manual):
    Electrostatics sSAPT0          -0.00224617 [mEh]      -0.00140950 [kcal/mol]      -0.00589733 [kJ/mol]
    Exchange sSAPT0                -0.00000000 [mEh]      -0.00000000 [kcal/mol]      -0.00000000 [kJ/mol]
    Induction sSAPT0               -0.00002269 [mEh]      -0.00001424 [kcal/mol]      -0.00005956 [kJ/mol]
    Dispersion sSAPT0              -0.00012831 [mEh]      -0.00008052 [kcal/mol]      -0.00033688 [kJ/mol]
  Total sSAPT0                     -0.00239717 [mEh]      -0.00150425 [kcal/mol]      -0.00629377 [kJ/mol]
  --------------------------------------------------------------------------------------------------------

*** Psi4 exiting successfully. Buy a developer a beer!
