                               Psi4 1.4rc3

  ==> Input File <==

--------------------------------------------------------------------------
# PSI4 file produced by CrystaLattE

# Generated from:               acetic_acid.xyz
# Psithon input for N-mer:      2mer-0+339
# Number of atoms per monomer:  [8, 8]
# Number of replicas:           2
# COM priority:                 2.950293828889e-05
# Minimum COM separations:      17.126
# Separation priority:          4.508245716494e-05
# Minimum monomer separations:  14.868
# Cutoff priority:              1.604513731977e-06
# Nuclear repulsion energy:     275.0002805134207

memory 7 GB

molecule Dimer_0_339 {
  O           -5.53102237       2.93940290       1.97762624
  O           -2.40708886       0.90817734       0.04905909
  H           -0.50304887       1.37579205       4.63880908
  H            0.00000000       4.25104285       3.09072238
  H           -2.38948215       4.01916779       5.40195041
  H           -3.74771411       0.47147930      -1.21557512
  C           -1.41859782       2.98500500       3.84405190
  C           -3.32263781       2.28628814       1.91221413
--
  O          -30.53758190      -8.65435033       7.42863574
  O          -33.66151541     -10.68557590       5.50006858
  H          -35.56555540     -10.21796119      10.08981858
  H          -36.06860427      -7.34271038       8.54173188
  H          -33.67912212      -7.57458545      10.85295990
  H          -32.32089016     -11.12227394       4.23543438
  C          -34.65000644      -8.60874824       9.29506139
  C          -32.74596646      -9.30746510       7.36322363
units = au
no_com
no_reorient
}

set {
  e_convergence 10
  d_convergence 10
  scf_type df
  mp2_type df
  cc_type df
  freeze_core true
}

energy('sapt0/aug-cc-pvdz')

--------------------------------------------------------------------------

  //              Dimer HF             //
    Molecular point group: c1
  Charge       = 0
  Multiplicity = 1
  Basis Set: AUG-CC-PVDZ
    Blend: AUG-CC-PVDZ
  Basis Set: (AUG-CC-PVDZ AUX)
    Blend: AUG-CC-PVDZ-JKFIT
  @DF-RHF Final Energy:  -455.68811544308835
    Total Energy =                       -455.6881154430883498
  //            Monomer A HF           //
    Molecular point group: c1
  Multiplicity = 1
  Basis Set: AUG-CC-PVDZ
    Blend: AUG-CC-PVDZ
  Basis Set: (AUG-CC-PVDZ AUX)
    Blend: AUG-CC-PVDZ-JKFIT
  @DF-RHF Final Energy:  -227.84408589650826
    Total Energy =                       -227.8440858965082612
  //            Monomer B HF           //
    Molecular point group: c1

    Geometry (in Bohr), charge = 0, multiplicity = 1:

       Center              X                  Y                   Z               Mass
    ------------   -----------------  -----------------  -----------------  -----------------
      Gh(O)          -5.531022370000     2.939402900000     1.977626240000    15.994914619570
      Gh(O)          -2.407088860000     0.908177340000     0.049059090000    15.994914619570
      Gh(H)          -0.503048870000     1.375792050000     4.638809080000     1.007825032230
      Gh(H)           0.000000000000     4.251042850000     3.090722380000     1.007825032230
      Gh(H)          -2.389482150000     4.019167790000     5.401950410000     1.007825032230
      Gh(H)          -3.747714110000     0.471479300000    -1.215575120000     1.007825032230
      Gh(C)          -1.418597820000     2.985005000000     3.844051900000    12.000000000000
      Gh(C)          -3.322637810000     2.286288140000     1.912214130000    12.000000000000
         O          -30.537581900000    -8.654350330000     7.428635740000    15.994914619570
         O          -33.661515410000   -10.685575900000     5.500068580000    15.994914619570
         H          -35.565555400000   -10.217961190000    10.089818580000     1.007825032230
         H          -36.068604270000    -7.342710380000     8.541731880000     1.007825032230
         H          -33.679122120000    -7.574585450000    10.852959900000     1.007825032230
         H          -32.320890160000   -11.122273940000     4.235434380000     1.007825032230
         C          -34.650006440000    -8.608748240000     9.295061390000    12.000000000000
         C          -32.745966460000    -9.307465100000     7.363223630000    12.000000000000

  Charge       = 0
  Multiplicity = 1
  Basis Set: AUG-CC-PVDZ
    Blend: AUG-CC-PVDZ
  Basis Set: (AUG-CC-PVDZ AUX)
    Blend: AUG-CC-PVDZ-JKFIT

    Orbital Energies [Eh]
    ---------------------

    Doubly Occupied:

       1A    -20.629476     2A    -20.552804     3A    -11.396108
       4A    -11.250979     5A     -1.475853     6A     -1.357486
       7A     -1.032999     8A     -0.837930     9A     -0.703065
      10A     -0.688465    11A     -0.657749    12A     -0.576538
      13A     -0.569697    14A     -0.561403    15A     -0.475343
      16A     -0.452434

  @DF-RHF Final Energy:  -227.84408589745868

   => Energetics <=

    Nuclear Repulsion Energy =            121.7484301849619754
    One-Electron Energy =                -552.7483713927201734
    Two-Electron Energy =                 203.1558553102995006
    Total Energy =                       -227.8440858974586831

  Dipole Moment: [D]
     X:    -2.1048      Y:    -0.7191      Z:    -0.2116     Total:     2.2342

    SAPT Results
  --------------------------------------------------------------------------------------------------------
    Electrostatics                  0.05646288 [mEh]       0.03543099 [kcal/mol]       0.14824327 [kJ/mol]
      Elst10,r                      0.05646288 [mEh]       0.03543099 [kcal/mol]       0.14824327 [kJ/mol]

    Exchange                       -0.00000000 [mEh]      -0.00000000 [kcal/mol]      -0.00000000 [kJ/mol]
      Exch10                       -0.00000000 [mEh]      -0.00000000 [kcal/mol]      -0.00000000 [kJ/mol]
      Exch10(S^2)                  -0.00000000 [mEh]      -0.00000000 [kcal/mol]      -0.00000000 [kJ/mol]

    Induction                      -0.00011200 [mEh]      -0.00007028 [kcal/mol]      -0.00029406 [kJ/mol]
      Ind20,r                      -0.00011355 [mEh]      -0.00007125 [kcal/mol]      -0.00029812 [kJ/mol]
      Exch-Ind20,r                  0.00000000 [mEh]       0.00000000 [kcal/mol]       0.00000000 [kJ/mol]
      delta HF,r (2)                0.00000155 [mEh]       0.00000097 [kcal/mol]       0.00000406 [kJ/mol]

    Dispersion                     -0.00050109 [mEh]      -0.00031444 [kcal/mol]      -0.00131562 [kJ/mol]
      Disp20                       -0.00050109 [mEh]      -0.00031444 [kcal/mol]      -0.00131562 [kJ/mol]
      Exch-Disp20                   0.00000000 [mEh]       0.00000000 [kcal/mol]       0.00000000 [kJ/mol]
      Disp20 (SS)                  -0.00025055 [mEh]      -0.00015722 [kcal/mol]      -0.00065781 [kJ/mol]
      Disp20 (OS)                  -0.00025055 [mEh]      -0.00015722 [kcal/mol]      -0.00065781 [kJ/mol]
      Exch-Disp20 (SS)              0.00000000 [mEh]       0.00000000 [kcal/mol]       0.00000000 [kJ/mol]
      Exch-Disp20 (OS)              0.00000000 [mEh]       0.00000000 [kcal/mol]       0.00000000 [kJ/mol]

  Total HF                          0.05635088 [mEh]       0.03536071 [kcal/mol]       0.14794921 [kJ/mol]
  Total SAPT0                       0.05584979 [mEh]       0.03504627 [kcal/mol]       0.14663359 [kJ/mol]

  Special recipe for scaled SAPT0 (see Manual):
    Electrostatics sSAPT0           0.05646288 [mEh]       0.03543099 [kcal/mol]       0.14824327 [kJ/mol]
    Exchange sSAPT0                -0.00000000 [mEh]      -0.00000000 [kcal/mol]      -0.00000000 [kJ/mol]
    Induction sSAPT0               -0.00011200 [mEh]      -0.00007028 [kcal/mol]      -0.00029406 [kJ/mol]
    Dispersion sSAPT0              -0.00050109 [mEh]      -0.00031444 [kcal/mol]      -0.00131562 [kJ/mol]
  Total sSAPT0                      0.05584979 [mEh]       0.03504627 [kcal/mol]       0.14663359 [kJ/mol]
  --------------------------------------------------------------------------------------------------------

*** Psi4 exiting successfully. Buy a developer a beer!
