                               Psi4 1.4rc3

  ==> Input File <==

--------------------------------------------------------------------------
# PSI4 file produced by CrystaLattE

# Generated from:               acetic_acid.xyz
# Psithon input for N-mer:      2mer-0+149
# Number of atoms per monomer:  [8, 8]
# Number of replicas:           2
# COM priority:                 3.400436511478e-05
# Minimum COM separations:      16.334
# Separation priority:          7.127776478156e-05
# Minimum monomer separations:  12.763
# Cutoff priority:              2.955326237214e-06
# Nuclear repulsion energy:     276.7497356665474

memory 7 GB

molecule Dimer_0_149 {
  O           -5.53102237       2.93940290       1.97762624
  O           -2.40708886       0.90817734       0.04905909
  H           -0.50304887       1.37579205       4.63880908
  H            0.00000000       4.25104285       3.09072238
  H           -2.38948215       4.01916779       5.40195041
  H           -3.74771411       0.47147930      -1.21557512
  C           -1.41859782       2.98500500       3.84405190
  C           -3.32263781       2.28628814       1.91221413
--
  O            7.19108365     -10.51398835     -25.27742123
  O            4.06715015      -8.48276279     -27.20598839
  H            2.16311016      -8.95037750     -22.61623840
  H            1.66006128     -11.82562830     -24.16432509
  H            4.04954344     -11.59375324     -21.85309707
  H            5.40777540      -8.04606475     -28.47062259
  C            3.07865911     -10.55959045     -23.41099558
  C            4.98269910      -9.86087359     -25.34283335
units = au
no_com
no_reorient
}

set {
  e_convergence 10
  d_convergence 10
  scf_type df
  mp2_type df
  cc_type df
  freeze_core true
}

energy('sapt0/aug-cc-pvdz')

--------------------------------------------------------------------------

  //              Dimer HF             //
    Molecular point group: c1
  Charge       = 0
  Multiplicity = 1
  Basis Set: AUG-CC-PVDZ
    Blend: AUG-CC-PVDZ
  Basis Set: (AUG-CC-PVDZ AUX)
    Blend: AUG-CC-PVDZ-JKFIT
  @DF-RHF Final Energy:  -455.68816647008344
    Total Energy =                       -455.6881664700834449
  //            Monomer A HF           //
    Molecular point group: c1
  Multiplicity = 1
  Basis Set: AUG-CC-PVDZ
    Blend: AUG-CC-PVDZ
  Basis Set: (AUG-CC-PVDZ AUX)
    Blend: AUG-CC-PVDZ-JKFIT
  @DF-RHF Final Energy:  -227.84408589701681
    Total Energy =                       -227.8440858970168108
  //            Monomer B HF           //
    Molecular point group: c1

    Geometry (in Bohr), charge = 0, multiplicity = 1:

       Center              X                  Y                   Z               Mass
    ------------   -----------------  -----------------  -----------------  -----------------
      Gh(O)          -5.531022370000     2.939402900000     1.977626240000    15.994914619570
      Gh(O)          -2.407088860000     0.908177340000     0.049059090000    15.994914619570
      Gh(H)          -0.503048870000     1.375792050000     4.638809080000     1.007825032230
      Gh(H)           0.000000000000     4.251042850000     3.090722380000     1.007825032230
      Gh(H)          -2.389482150000     4.019167790000     5.401950410000     1.007825032230
      Gh(H)          -3.747714110000     0.471479300000    -1.215575120000     1.007825032230
      Gh(C)          -1.418597820000     2.985005000000     3.844051900000    12.000000000000
      Gh(C)          -3.322637810000     2.286288140000     1.912214130000    12.000000000000
         O            7.191083650000   -10.513988350000   -25.277421230000    15.994914619570
         O            4.067150150000    -8.482762790000   -27.205988390000    15.994914619570
         H            2.163110160000    -8.950377500000   -22.616238400000     1.007825032230
         H            1.660061280000   -11.825628300000   -24.164325090000     1.007825032230
         H            4.049543440000   -11.593753240000   -21.853097070000     1.007825032230
         H            5.407775400000    -8.046064750000   -28.470622590000     1.007825032230
         C            3.078659110000   -10.559590450000   -23.410995580000    12.000000000000
         C            4.982699100000    -9.860873590000   -25.342833350000    12.000000000000

  Charge       = 0
  Multiplicity = 1
  Basis Set: AUG-CC-PVDZ
    Blend: AUG-CC-PVDZ
  Basis Set: (AUG-CC-PVDZ AUX)
    Blend: AUG-CC-PVDZ-JKFIT

    Orbital Energies [Eh]
    ---------------------

    Doubly Occupied:

       1A    -20.629476     2A    -20.552804     3A    -11.396108
       4A    -11.250979     5A     -1.475853     6A     -1.357486
       7A     -1.032999     8A     -0.837930     9A     -0.703065
      10A     -0.688465    11A     -0.657749    12A     -0.576538
      13A     -0.569697    14A     -0.561403    15A     -0.475343
      16A     -0.452434

  @DF-RHF Final Energy:  -227.84408589283177

   => Energetics <=

    Nuclear Repulsion Energy =            121.7484303546710294
    One-Electron Energy =                -552.7483717009164366
    Two-Electron Energy =                 203.1558554534136363
    Total Energy =                       -227.8440858928317709

  Dipole Moment: [D]
     X:    -2.1048      Y:     0.7191      Z:    -0.2116     Total:     2.2342

    SAPT Results
  --------------------------------------------------------------------------------------------------------
    Electrostatics                  0.00538495 [mEh]       0.00337911 [kcal/mol]       0.01413818 [kJ/mol]
      Elst10,r                      0.00538495 [mEh]       0.00337911 [kcal/mol]       0.01413818 [kJ/mol]

    Exchange                       -0.00000000 [mEh]      -0.00000000 [kcal/mol]      -0.00000000 [kJ/mol]
      Exch10                       -0.00000000 [mEh]      -0.00000000 [kcal/mol]      -0.00000000 [kJ/mol]
      Exch10(S^2)                  -0.00000000 [mEh]      -0.00000000 [kcal/mol]      -0.00000000 [kJ/mol]

    Induction                      -0.00006518 [mEh]      -0.00004090 [kcal/mol]      -0.00017114 [kJ/mol]
      Ind20,r                      -0.00004601 [mEh]      -0.00002887 [kcal/mol]      -0.00012080 [kJ/mol]
      Exch-Ind20,r                  0.00000000 [mEh]       0.00000000 [kcal/mol]       0.00000000 [kJ/mol]
      delta HF,r (2)               -0.00001917 [mEh]      -0.00001203 [kcal/mol]      -0.00005034 [kJ/mol]

    Dispersion                     -0.00072794 [mEh]      -0.00045679 [kcal/mol]      -0.00191120 [kJ/mol]
      Disp20                       -0.00072794 [mEh]      -0.00045679 [kcal/mol]      -0.00191120 [kJ/mol]
      Exch-Disp20                   0.00000000 [mEh]       0.00000000 [kcal/mol]       0.00000000 [kJ/mol]
      Disp20 (SS)                  -0.00036397 [mEh]      -0.00022839 [kcal/mol]      -0.00095560 [kJ/mol]
      Disp20 (OS)                  -0.00036397 [mEh]      -0.00022839 [kcal/mol]      -0.00095560 [kJ/mol]
      Exch-Disp20 (SS)              0.00000000 [mEh]       0.00000000 [kcal/mol]       0.00000000 [kJ/mol]
      Exch-Disp20 (OS)              0.00000000 [mEh]       0.00000000 [kcal/mol]       0.00000000 [kJ/mol]

  Total HF                          0.00531977 [mEh]       0.00333820 [kcal/mol]       0.01396704 [kJ/mol]
  Total SAPT0                       0.00459183 [mEh]       0.00288142 [kcal/mol]       0.01205585 [kJ/mol]

  Special recipe for scaled SAPT0 (see Manual):
    Electrostatics sSAPT0           0.00538495 [mEh]       0.00337911 [kcal/mol]       0.01413818 [kJ/mol]
    Exchange sSAPT0                -0.00000000 [mEh]      -0.00000000 [kcal/mol]      -0.00000000 [kJ/mol]
    Induction sSAPT0               -0.00006518 [mEh]      -0.00004090 [kcal/mol]      -0.00017114 [kJ/mol]
    Dispersion sSAPT0              -0.00072794 [mEh]      -0.00045679 [kcal/mol]      -0.00191120 [kJ/mol]
  Total sSAPT0                      0.00459183 [mEh]       0.00288142 [kcal/mol]       0.01205585 [kJ/mol]
  --------------------------------------------------------------------------------------------------------

*** Psi4 exiting successfully. Buy a developer a beer!
