                               Psi4 1.4rc3

  ==> Input File <==

--------------------------------------------------------------------------
# PSI4 file produced by CrystaLattE

# Generated from:               acetic_acid.xyz
# Psithon input for N-mer:      2mer-0+93
# Number of atoms per monomer:  [8, 8]
# Number of replicas:           2
# COM priority:                 1.150714215884e-04
# Minimum COM separations:      10.880
# Separation priority:          1.824619045938e-04
# Minimum monomer separations:  9.330
# Cutoff priority:              1.034894959739e-05
# Nuclear repulsion energy:     292.78868038339726

memory 7 GB

molecule Dimer_0_93 {
  O           -5.53102237       2.93940290       1.97762624
  O           -2.40708886       0.90817734       0.04905909
  H           -0.50304887       1.37579205       4.63880908
  H            0.00000000       4.25104285       3.09072238
  H           -2.38948215       4.01916779       5.40195041
  H           -3.74771411       0.47147930      -1.21557512
  C           -1.41859782       2.98500500       3.84405190
  C           -3.32263781       2.28628814       1.91221413
--
  O           -5.38513820      -8.65435033      18.33065473
  O           -8.50907170     -10.68557590      16.40208757
  H          -10.41311169     -10.21796119      20.99183757
  H          -10.91616057      -7.34271038      19.44375087
  H           -8.52667842      -7.57458545      21.75497890
  H           -7.16844646     -11.12227394      15.13745337
  C           -9.49756274      -8.60874824      20.19708038
  C           -7.59352275      -9.30746510      18.26524262
units = au
no_com
no_reorient
}

set {
  e_convergence 10
  d_convergence 10
  scf_type df
  mp2_type df
  cc_type df
  freeze_core true
}

energy('sapt0/aug-cc-pvdz')

--------------------------------------------------------------------------

  //              Dimer HF             //
    Molecular point group: c1
  Charge       = 0
  Multiplicity = 1
  Basis Set: AUG-CC-PVDZ
    Blend: AUG-CC-PVDZ
  Basis Set: (AUG-CC-PVDZ AUX)
    Blend: AUG-CC-PVDZ-JKFIT
  @DF-RHF Final Energy:  -455.68826211703657
    Total Energy =                       -455.6882621170365724
  //            Monomer A HF           //
    Molecular point group: c1
  Multiplicity = 1
  Basis Set: AUG-CC-PVDZ
    Blend: AUG-CC-PVDZ
  Basis Set: (AUG-CC-PVDZ AUX)
    Blend: AUG-CC-PVDZ-JKFIT
  @DF-RHF Final Energy:  -227.84408609411034
    Total Energy =                       -227.8440860941103381
  //            Monomer B HF           //
    Molecular point group: c1

    Geometry (in Bohr), charge = 0, multiplicity = 1:

       Center              X                  Y                   Z               Mass
    ------------   -----------------  -----------------  -----------------  -----------------
      Gh(O)          -5.531022370000     2.939402900000     1.977626240000    15.994914619570
      Gh(O)          -2.407088860000     0.908177340000     0.049059090000    15.994914619570
      Gh(H)          -0.503048870000     1.375792050000     4.638809080000     1.007825032230
      Gh(H)           0.000000000000     4.251042850000     3.090722380000     1.007825032230
      Gh(H)          -2.389482150000     4.019167790000     5.401950410000     1.007825032230
      Gh(H)          -3.747714110000     0.471479300000    -1.215575120000     1.007825032230
      Gh(C)          -1.418597820000     2.985005000000     3.844051900000    12.000000000000
      Gh(C)          -3.322637810000     2.286288140000     1.912214130000    12.000000000000
         O           -5.385138200000    -8.654350330000    18.330654730000    15.994914619570
         O           -8.509071700000   -10.685575900000    16.402087570000    15.994914619570
         H          -10.413111690000   -10.217961190000    20.991837570000     1.007825032230
         H          -10.916160570000    -7.342710380000    19.443750870000     1.007825032230
         H           -8.526678420000    -7.574585450000    21.754978900000     1.007825032230
         H           -7.168446460000   -11.122273940000    15.137453370000     1.007825032230
         C           -9.497562740000    -8.608748240000    20.197080380000    12.000000000000
         C           -7.593522750000    -9.307465100000    18.265242620000    12.000000000000

  Charge       = 0
  Multiplicity = 1
  Basis Set: AUG-CC-PVDZ
    Blend: AUG-CC-PVDZ
  Basis Set: (AUG-CC-PVDZ AUX)
    Blend: AUG-CC-PVDZ-JKFIT

    Orbital Energies [Eh]
    ---------------------

    Doubly Occupied:

       1A    -20.629476     2A    -20.552804     3A    -11.396108
       4A    -11.250979     5A     -1.475852     6A     -1.357486
       7A     -1.032999     8A     -0.837930     9A     -0.703065
      10A     -0.688465    11A     -0.657749    12A     -0.576538
      13A     -0.569697    14A     -0.561403    15A     -0.475343
      16A     -0.452433

  @DF-RHF Final Energy:  -227.84408609822225

   => Energetics <=

    Nuclear Repulsion Energy =            121.7484302636570135
    One-Electron Energy =                -552.7483731974324428
    Two-Electron Energy =                 203.1558568355531520
    Total Energy =                       -227.8440860982222489

  Dipole Moment: [D]
     X:    -2.1047      Y:    -0.7191      Z:    -0.2116     Total:     2.2342

    SAPT Results
  --------------------------------------------------------------------------------------------------------
    Electrostatics                 -0.08930961 [mEh]      -0.05604262 [kcal/mol]      -0.23448234 [kJ/mol]
      Elst10,r                     -0.08930961 [mEh]      -0.05604262 [kcal/mol]      -0.23448234 [kJ/mol]

    Exchange                        0.00000005 [mEh]       0.00000003 [kcal/mol]       0.00000012 [kJ/mol]
      Exch10                        0.00000005 [mEh]       0.00000003 [kcal/mol]       0.00000012 [kJ/mol]
      Exch10(S^2)                   0.00000005 [mEh]       0.00000003 [kcal/mol]       0.00000012 [kJ/mol]

    Induction                      -0.00061514 [mEh]      -0.00038601 [kcal/mol]      -0.00161506 [kJ/mol]
      Ind20,r                      -0.00057308 [mEh]      -0.00035961 [kcal/mol]      -0.00150462 [kJ/mol]
      Exch-Ind20,r                  0.00000030 [mEh]       0.00000019 [kcal/mol]       0.00000078 [kJ/mol]
      delta HF,r (2)               -0.00004236 [mEh]      -0.00002658 [kcal/mol]      -0.00011121 [kJ/mol]

    Dispersion                     -0.00675929 [mEh]      -0.00424152 [kcal/mol]      -0.01774650 [kJ/mol]
      Disp20                       -0.00675932 [mEh]      -0.00424154 [kcal/mol]      -0.01774660 [kJ/mol]
      Exch-Disp20                   0.00000004 [mEh]       0.00000002 [kcal/mol]       0.00000009 [kJ/mol]
      Disp20 (SS)                  -0.00337966 [mEh]      -0.00212077 [kcal/mol]      -0.00887330 [kJ/mol]
      Disp20 (OS)                  -0.00337966 [mEh]      -0.00212077 [kcal/mol]      -0.00887330 [kJ/mol]
      Exch-Disp20 (SS)              0.00000003 [mEh]       0.00000002 [kcal/mol]       0.00000008 [kJ/mol]
      Exch-Disp20 (OS)              0.00000001 [mEh]       0.00000000 [kcal/mol]       0.00000002 [kJ/mol]

  Total HF                         -0.08992470 [mEh]      -0.05642860 [kcal/mol]      -0.23609728 [kJ/mol]
  Total SAPT0                      -0.09668399 [mEh]      -0.06067012 [kcal/mol]      -0.25384378 [kJ/mol]

  Special recipe for scaled SAPT0 (see Manual):
    Electrostatics sSAPT0          -0.08930961 [mEh]      -0.05604262 [kcal/mol]      -0.23448234 [kJ/mol]
    Exchange sSAPT0                 0.00000005 [mEh]       0.00000003 [kcal/mol]       0.00000012 [kJ/mol]
    Induction sSAPT0               -0.00061514 [mEh]      -0.00038601 [kcal/mol]      -0.00161506 [kJ/mol]
    Dispersion sSAPT0              -0.00675929 [mEh]      -0.00424152 [kcal/mol]      -0.01774650 [kJ/mol]
  Total sSAPT0                     -0.09668399 [mEh]      -0.06067012 [kcal/mol]      -0.25384378 [kJ/mol]
  --------------------------------------------------------------------------------------------------------

*** Psi4 exiting successfully. Buy a developer a beer!
