                               Psi4 1.4rc3

  ==> Input File <==

--------------------------------------------------------------------------
# PSI4 file produced by CrystaLattE

# Generated from:               acetic_acid.xyz
# Psithon input for N-mer:      2mer-0+491
# Number of atoms per monomer:  [8, 8]
# Number of replicas:           2
# COM priority:                 1.612308210121e-05
# Minimum COM separations:      20.947
# Separation priority:          2.156245984739e-05
# Minimum monomer separations:  19.012
# Cutoff priority:              6.001563491460e-07
# Nuclear repulsion energy:     269.24861764337584

memory 7 GB

molecule Dimer_0_491 {
  O           -5.53102237       2.93940290       1.97762624
  O           -2.40708886       0.90817734       0.04905909
  H           -0.50304887       1.37579205       4.63880908
  H            0.00000000       4.25104285       3.09072238
  H           -2.38948215       4.01916779       5.40195041
  H           -3.74771411       0.47147930      -1.21557512
  C           -1.41859782       2.98500500       3.84405190
  C           -3.32263781       2.28628814       1.91221413
--
  O          -17.96136005     -33.70149483       7.42863574
  O          -21.08529356     -31.67026926       5.50006858
  H          -22.98933354     -32.13788398      10.08981858
  H          -23.49238242     -35.01313478       8.54173188
  H          -21.10290027     -34.78125972      10.85295990
  H          -19.74466831     -31.23357122       4.23543438
  C          -22.07378459     -33.74709693       9.29506139
  C          -20.16974460     -33.04838007       7.36322363
units = au
no_com
no_reorient
}

set {
  e_convergence 10
  d_convergence 10
  scf_type df
  mp2_type df
  cc_type df
  freeze_core true
}

energy('sapt0/aug-cc-pvdz')

--------------------------------------------------------------------------

  //              Dimer HF             //
    Molecular point group: c1
  Charge       = 0
  Multiplicity = 1
  Basis Set: AUG-CC-PVDZ
    Blend: AUG-CC-PVDZ
  Basis Set: (AUG-CC-PVDZ AUX)
    Blend: AUG-CC-PVDZ-JKFIT
  @DF-RHF Final Energy:  -455.68818230722127
    Total Energy =                       -455.6881823072212683
  //            Monomer A HF           //
    Molecular point group: c1
  Multiplicity = 1
  Basis Set: AUG-CC-PVDZ
    Blend: AUG-CC-PVDZ
  Basis Set: (AUG-CC-PVDZ AUX)
    Blend: AUG-CC-PVDZ-JKFIT
  @DF-RHF Final Energy:  -227.84408589625025
    Total Energy =                       -227.8440858962502489
  //            Monomer B HF           //
    Molecular point group: c1

    Geometry (in Bohr), charge = 0, multiplicity = 1:

       Center              X                  Y                   Z               Mass
    ------------   -----------------  -----------------  -----------------  -----------------
      Gh(O)          -5.531022370000     2.939402900000     1.977626240000    15.994914619570
      Gh(O)          -2.407088860000     0.908177340000     0.049059090000    15.994914619570
      Gh(H)          -0.503048870000     1.375792050000     4.638809080000     1.007825032230
      Gh(H)           0.000000000000     4.251042850000     3.090722380000     1.007825032230
      Gh(H)          -2.389482150000     4.019167790000     5.401950410000     1.007825032230
      Gh(H)          -3.747714110000     0.471479300000    -1.215575120000     1.007825032230
      Gh(C)          -1.418597820000     2.985005000000     3.844051900000    12.000000000000
      Gh(C)          -3.322637810000     2.286288140000     1.912214130000    12.000000000000
         O          -17.961360050000   -33.701494830000     7.428635740000    15.994914619570
         O          -21.085293560000   -31.670269260000     5.500068580000    15.994914619570
         H          -22.989333540000   -32.137883980000    10.089818580000     1.007825032230
         H          -23.492382420000   -35.013134780000     8.541731880000     1.007825032230
         H          -21.102900270000   -34.781259720000    10.852959900000     1.007825032230
         H          -19.744668310000   -31.233571220000     4.235434380000     1.007825032230
         C          -22.073784590000   -33.747096930000     9.295061390000    12.000000000000
         C          -20.169744600000   -33.048380070000     7.363223630000    12.000000000000

  Charge       = 0
  Multiplicity = 1
  Basis Set: AUG-CC-PVDZ
    Blend: AUG-CC-PVDZ
  Basis Set: (AUG-CC-PVDZ AUX)
    Blend: AUG-CC-PVDZ-JKFIT

    Orbital Energies [Eh]
    ---------------------

    Doubly Occupied:

       1A    -20.629476     2A    -20.552804     3A    -11.396108
       4A    -11.250979     5A     -1.475853     6A     -1.357486
       7A     -1.032999     8A     -0.837930     9A     -0.703065
      10A     -0.688465    11A     -0.657749    12A     -0.576538
      13A     -0.569697    14A     -0.561403    15A     -0.475343
      16A     -0.452434

  @DF-RHF Final Energy:  -227.84408589720178

   => Energetics <=

    Nuclear Repulsion Energy =            121.7484301972525458
    One-Electron Energy =                -552.7483714131527677
    Two-Electron Energy =                 203.1558553186984284
    Total Energy =                       -227.8440858972017793

  Dipole Moment: [D]
     X:    -2.1048      Y:     0.7191      Z:    -0.2116     Total:     2.2342

    SAPT Results
  --------------------------------------------------------------------------------------------------------
    Electrostatics                 -0.01049525 [mEh]      -0.00658587 [kcal/mol]      -0.02755528 [kJ/mol]
      Elst10,r                     -0.01049525 [mEh]      -0.00658587 [kcal/mol]      -0.02755528 [kJ/mol]

    Exchange                       -0.00000000 [mEh]      -0.00000000 [kcal/mol]      -0.00000000 [kJ/mol]
      Exch10                       -0.00000000 [mEh]      -0.00000000 [kcal/mol]      -0.00000000 [kJ/mol]
      Exch10(S^2)                  -0.00000000 [mEh]      -0.00000000 [kcal/mol]      -0.00000000 [kJ/mol]

    Induction                      -0.00001852 [mEh]      -0.00001162 [kcal/mol]      -0.00004861 [kJ/mol]
      Ind20,r                      -0.00000689 [mEh]      -0.00000433 [kcal/mol]      -0.00001810 [kJ/mol]
      Exch-Ind20,r                  0.00000000 [mEh]       0.00000000 [kcal/mol]       0.00000000 [kJ/mol]
      delta HF,r (2)               -0.00001162 [mEh]      -0.00000729 [kcal/mol]      -0.00003051 [kJ/mol]

    Dispersion                     -0.00012466 [mEh]      -0.00007823 [kcal/mol]      -0.00032730 [kJ/mol]
      Disp20                       -0.00012466 [mEh]      -0.00007823 [kcal/mol]      -0.00032730 [kJ/mol]
      Exch-Disp20                   0.00000000 [mEh]       0.00000000 [kcal/mol]       0.00000000 [kJ/mol]
      Disp20 (SS)                  -0.00006233 [mEh]      -0.00003911 [kcal/mol]      -0.00016365 [kJ/mol]
      Disp20 (OS)                  -0.00006233 [mEh]      -0.00003911 [kcal/mol]      -0.00016365 [kJ/mol]
      Exch-Disp20 (SS)              0.00000000 [mEh]       0.00000000 [kcal/mol]       0.00000000 [kJ/mol]
      Exch-Disp20 (OS)              0.00000000 [mEh]       0.00000000 [kcal/mol]       0.00000000 [kJ/mol]

  Total HF                         -0.01051377 [mEh]      -0.00659749 [kcal/mol]      -0.02760390 [kJ/mol]
  Total SAPT0                      -0.01063843 [mEh]      -0.00667572 [kcal/mol]      -0.02793119 [kJ/mol]

  Special recipe for scaled SAPT0 (see Manual):
    Electrostatics sSAPT0          -0.01049525 [mEh]      -0.00658587 [kcal/mol]      -0.02755528 [kJ/mol]
    Exchange sSAPT0                -0.00000000 [mEh]      -0.00000000 [kcal/mol]      -0.00000000 [kJ/mol]
    Induction sSAPT0               -0.00001852 [mEh]      -0.00001162 [kcal/mol]      -0.00004861 [kJ/mol]
    Dispersion sSAPT0              -0.00012466 [mEh]      -0.00007823 [kcal/mol]      -0.00032730 [kJ/mol]
  Total sSAPT0                     -0.01063843 [mEh]      -0.00667572 [kcal/mol]      -0.02793119 [kJ/mol]
  --------------------------------------------------------------------------------------------------------

*** Psi4 exiting successfully. Buy a developer a beer!
