                               Psi4 1.4rc3

  ==> Input File <==

--------------------------------------------------------------------------
# PSI4 file produced by CrystaLattE

# Generated from:               acetic_acid.xyz
# Psithon input for N-mer:      2mer-0+346
# Number of atoms per monomer:  [8, 8]
# Number of replicas:           2
# COM priority:                 1.729090130150e-05
# Minimum COM separations:      20.464
# Separation priority:          3.156581109018e-05
# Minimum monomer separations:  16.744
# Cutoff priority:              9.975988445564e-07
# Nuclear repulsion energy:     270.01043844442086

memory 7 GB

molecule Dimer_0_346 {
  O           -5.53102237       2.93940290       1.97762624
  O           -2.40708886       0.90817734       0.04905909
  H           -0.50304887       1.37579205       4.63880908
  H            0.00000000       4.25104285       3.09072238
  H           -2.38948215       4.01916779       5.40195041
  H           -3.74771411       0.47147930      -1.21557512
  C           -1.41859782       2.98500500       3.84405190
  C           -3.32263781       2.28628814       1.91221413
--
  O           -5.38513820     -24.11268799     -25.27742123
  O           -8.50907170     -26.14391355     -27.20598839
  H          -10.41311169     -25.67629884     -22.61623840
  H          -10.91616057     -22.80104804     -24.16432509
  H           -8.52667842     -23.03292310     -21.85309707
  H           -7.16844646     -26.58061159     -28.47062259
  C           -9.49756274     -24.06708589     -23.41099558
  C           -7.59352275     -24.76580275     -25.34283335
units = au
no_com
no_reorient
}

set {
  e_convergence 10
  d_convergence 10
  scf_type df
  mp2_type df
  cc_type df
  freeze_core true
}

energy('sapt0/aug-cc-pvdz')

--------------------------------------------------------------------------

  //              Dimer HF             //
    Molecular point group: c1
  Charge       = 0
  Multiplicity = 1
  Basis Set: AUG-CC-PVDZ
    Blend: AUG-CC-PVDZ
  Basis Set: (AUG-CC-PVDZ AUX)
    Blend: AUG-CC-PVDZ-JKFIT
  @DF-RHF Final Energy:  -455.68818602726941
    Total Energy =                       -455.6881860272694098
  //            Monomer A HF           //
    Molecular point group: c1
  Multiplicity = 1
  Basis Set: AUG-CC-PVDZ
    Blend: AUG-CC-PVDZ
  Basis Set: (AUG-CC-PVDZ AUX)
    Blend: AUG-CC-PVDZ-JKFIT
  @DF-RHF Final Energy:  -227.84408589640736
    Total Energy =                       -227.8440858964073641
  //            Monomer B HF           //
    Molecular point group: c1

    Geometry (in Bohr), charge = 0, multiplicity = 1:

       Center              X                  Y                   Z               Mass
    ------------   -----------------  -----------------  -----------------  -----------------
      Gh(O)          -5.531022370000     2.939402900000     1.977626240000    15.994914619570
      Gh(O)          -2.407088860000     0.908177340000     0.049059090000    15.994914619570
      Gh(H)          -0.503048870000     1.375792050000     4.638809080000     1.007825032230
      Gh(H)           0.000000000000     4.251042850000     3.090722380000     1.007825032230
      Gh(H)          -2.389482150000     4.019167790000     5.401950410000     1.007825032230
      Gh(H)          -3.747714110000     0.471479300000    -1.215575120000     1.007825032230
      Gh(C)          -1.418597820000     2.985005000000     3.844051900000    12.000000000000
      Gh(C)          -3.322637810000     2.286288140000     1.912214130000    12.000000000000
         O           -5.385138200000   -24.112687990000   -25.277421230000    15.994914619570
         O           -8.509071700000   -26.143913550000   -27.205988390000    15.994914619570
         H          -10.413111690000   -25.676298840000   -22.616238400000     1.007825032230
         H          -10.916160570000   -22.801048040000   -24.164325090000     1.007825032230
         H           -8.526678420000   -23.032923100000   -21.853097070000     1.007825032230
         H           -7.168446460000   -26.580611590000   -28.470622590000     1.007825032230
         C           -9.497562740000   -24.067085890000   -23.410995580000    12.000000000000
         C           -7.593522750000   -24.765802750000   -25.342833350000    12.000000000000

  Charge       = 0
  Multiplicity = 1
  Basis Set: AUG-CC-PVDZ
    Blend: AUG-CC-PVDZ
  Basis Set: (AUG-CC-PVDZ AUX)
    Blend: AUG-CC-PVDZ-JKFIT

    Orbital Energies [Eh]
    ---------------------

    Doubly Occupied:

       1A    -20.629476     2A    -20.552804     3A    -11.396108
       4A    -11.250979     5A     -1.475853     6A     -1.357486
       7A     -1.032999     8A     -0.837930     9A     -0.703065
      10A     -0.688465    11A     -0.657749    12A     -0.576538
      13A     -0.569697    14A     -0.561403    15A     -0.475343
      16A     -0.452434

  @DF-RHF Final Energy:  -227.84408589632210

   => Energetics <=

    Nuclear Repulsion Energy =            121.7484303743492973
    One-Electron Energy =                -552.7483717505583627
    Two-Electron Energy =                 203.1558554798869523
    Total Energy =                       -227.8440858963220990

  Dipole Moment: [D]
     X:    -2.1048      Y:    -0.7191      Z:    -0.2116     Total:     2.2342

    SAPT Results
  --------------------------------------------------------------------------------------------------------
    Electrostatics                 -0.01420706 [mEh]      -0.00891507 [kcal/mol]      -0.03730064 [kJ/mol]
      Elst10,r                     -0.01420706 [mEh]      -0.00891507 [kcal/mol]      -0.03730064 [kJ/mol]

    Exchange                       -0.00000000 [mEh]      -0.00000000 [kcal/mol]      -0.00000000 [kJ/mol]
      Exch10                       -0.00000000 [mEh]      -0.00000000 [kcal/mol]      -0.00000000 [kJ/mol]
      Exch10(S^2)                  -0.00000000 [mEh]      -0.00000000 [kcal/mol]      -0.00000000 [kJ/mol]

    Induction                      -0.00002748 [mEh]      -0.00001724 [kcal/mol]      -0.00007214 [kJ/mol]
      Ind20,r                      -0.00001228 [mEh]      -0.00000771 [kcal/mol]      -0.00003225 [kJ/mol]
      Exch-Ind20,r                  0.00000000 [mEh]       0.00000000 [kcal/mol]       0.00000000 [kJ/mol]
      delta HF,r (2)               -0.00001520 [mEh]      -0.00000954 [kcal/mol]      -0.00003990 [kJ/mol]

    Dispersion                     -0.00018155 [mEh]      -0.00011393 [kcal/mol]      -0.00047667 [kJ/mol]
      Disp20                       -0.00018155 [mEh]      -0.00011393 [kcal/mol]      -0.00047667 [kJ/mol]
      Exch-Disp20                   0.00000000 [mEh]       0.00000000 [kcal/mol]       0.00000000 [kJ/mol]
      Disp20 (SS)                  -0.00009078 [mEh]      -0.00005696 [kcal/mol]      -0.00023833 [kJ/mol]
      Disp20 (OS)                  -0.00009078 [mEh]      -0.00005696 [kcal/mol]      -0.00023833 [kJ/mol]
      Exch-Disp20 (SS)              0.00000000 [mEh]       0.00000000 [kcal/mol]       0.00000000 [kJ/mol]
      Exch-Disp20 (OS)              0.00000000 [mEh]       0.00000000 [kcal/mol]       0.00000000 [kJ/mol]

  Total HF                         -0.01423454 [mEh]      -0.00893231 [kcal/mol]      -0.03737278 [kJ/mol]
  Total SAPT0                      -0.01441609 [mEh]      -0.00904624 [kcal/mol]      -0.03784945 [kJ/mol]

  Special recipe for scaled SAPT0 (see Manual):
    Electrostatics sSAPT0          -0.01420706 [mEh]      -0.00891507 [kcal/mol]      -0.03730064 [kJ/mol]
    Exchange sSAPT0                -0.00000000 [mEh]      -0.00000000 [kcal/mol]      -0.00000000 [kJ/mol]
    Induction sSAPT0               -0.00002748 [mEh]      -0.00001724 [kcal/mol]      -0.00007214 [kJ/mol]
    Dispersion sSAPT0              -0.00018155 [mEh]      -0.00011393 [kcal/mol]      -0.00047667 [kJ/mol]
  Total sSAPT0                     -0.01441609 [mEh]      -0.00904624 [kcal/mol]      -0.03784945 [kJ/mol]
  --------------------------------------------------------------------------------------------------------

*** Psi4 exiting successfully. Buy a developer a beer!
