                               Psi4 1.4rc3

  ==> Input File <==

--------------------------------------------------------------------------
# PSI4 file produced by CrystaLattE

# Generated from:               acetic_acid.xyz
# Psithon input for N-mer:      2mer-0+208
# Number of atoms per monomer:  [8, 8]
# Number of replicas:           2
# COM priority:                 2.569874653006e-05
# Minimum COM separations:      17.932
# Separation priority:          4.492349911369e-05
# Minimum monomer separations:  14.886
# Cutoff priority:              1.596974942171e-06
# Nuclear repulsion energy:     273.915963974682

memory 7 GB

molecule Dimer_0_208 {
  O           -5.53102237       2.93940290       1.97762624
  O           -2.40708886       0.90817734       0.04905909
  H           -0.50304887       1.37579205       4.63880908
  H            0.00000000       4.25104285       3.09072238
  H           -2.38948215       4.01916779       5.40195041
  H           -3.74771411       0.47147930      -1.21557512
  C           -1.41859782       2.98500500       3.84405190
  C           -3.32263781       2.28628814       1.91221413
--
  O           32.34352736      -2.78481953      -3.47338325
  O           29.21959385      -0.75359396      -5.40195041
  H           27.31555386      -1.22120867      -0.81220041
  H           26.81250499      -4.09645948      -2.36028711
  H           29.20198714      -3.86458441      -0.04905909
  H           30.56021910      -0.31689592      -6.66658461
  C           28.23110281      -2.83042162      -1.60695760
  C           30.13514280      -2.13170476      -3.53879536
units = au
no_com
no_reorient
}

set {
  e_convergence 10
  d_convergence 10
  scf_type df
  mp2_type df
  cc_type df
  freeze_core true
}

energy('sapt0/aug-cc-pvdz')

--------------------------------------------------------------------------

  //              Dimer HF             //
    Molecular point group: c1
  Charge       = 0
  Multiplicity = 1
  Basis Set: AUG-CC-PVDZ
    Blend: AUG-CC-PVDZ
  Basis Set: (AUG-CC-PVDZ AUX)
    Blend: AUG-CC-PVDZ-JKFIT
  @DF-RHF Final Energy:  -455.68815009084710
    Total Energy =                       -455.6881500908471025
  //            Monomer A HF           //
    Molecular point group: c1
  Multiplicity = 1
  Basis Set: AUG-CC-PVDZ
    Blend: AUG-CC-PVDZ
  Basis Set: (AUG-CC-PVDZ AUX)
    Blend: AUG-CC-PVDZ-JKFIT
  @DF-RHF Final Energy:  -227.84408589354177
    Total Energy =                       -227.8440858935417737
  //            Monomer B HF           //
    Molecular point group: c1

    Geometry (in Bohr), charge = 0, multiplicity = 1:

       Center              X                  Y                   Z               Mass
    ------------   -----------------  -----------------  -----------------  -----------------
      Gh(O)          -5.531022370000     2.939402900000     1.977626240000    15.994914619570
      Gh(O)          -2.407088860000     0.908177340000     0.049059090000    15.994914619570
      Gh(H)          -0.503048870000     1.375792050000     4.638809080000     1.007825032230
      Gh(H)           0.000000000000     4.251042850000     3.090722380000     1.007825032230
      Gh(H)          -2.389482150000     4.019167790000     5.401950410000     1.007825032230
      Gh(H)          -3.747714110000     0.471479300000    -1.215575120000     1.007825032230
      Gh(C)          -1.418597820000     2.985005000000     3.844051900000    12.000000000000
      Gh(C)          -3.322637810000     2.286288140000     1.912214130000    12.000000000000
         O           32.343527360000    -2.784819530000    -3.473383250000    15.994914619570
         O           29.219593850000    -0.753593960000    -5.401950410000    15.994914619570
         H           27.315553860000    -1.221208670000    -0.812200410000     1.007825032230
         H           26.812504990000    -4.096459480000    -2.360287110000     1.007825032230
         H           29.201987140000    -3.864584410000    -0.049059090000     1.007825032230
         H           30.560219100000    -0.316895920000    -6.666584610000     1.007825032230
         C           28.231102810000    -2.830421620000    -1.606957600000    12.000000000000
         C           30.135142800000    -2.131704760000    -3.538795360000    12.000000000000

  Charge       = 0
  Multiplicity = 1
  Basis Set: AUG-CC-PVDZ
    Blend: AUG-CC-PVDZ
  Basis Set: (AUG-CC-PVDZ AUX)
    Blend: AUG-CC-PVDZ-JKFIT

    Orbital Energies [Eh]
    ---------------------

    Doubly Occupied:

       1A    -20.629476     2A    -20.552804     3A    -11.396108
       4A    -11.250979     5A     -1.475853     6A     -1.357486
       7A     -1.032999     8A     -0.837930     9A     -0.703065
      10A     -0.688465    11A     -0.657749    12A     -0.576538
      13A     -0.569697    14A     -0.561403    15A     -0.475343
      16A     -0.452434

  @DF-RHF Final Energy:  -227.84408589304468

   => Energetics <=

    Nuclear Repulsion Energy =            121.7484301367385058
    One-Electron Energy =                -552.7483712781286158
    Two-Electron Energy =                 203.1558552483454037
    Total Energy =                       -227.8440858930446780

  Dipole Moment: [D]
     X:    -2.1048      Y:     0.7191      Z:    -0.2116     Total:     2.2342

    SAPT Results
  --------------------------------------------------------------------------------------------------------
    Electrostatics                  0.02176523 [mEh]       0.01365789 [kcal/mol]       0.05714461 [kJ/mol]
      Elst10,r                      0.02176523 [mEh]       0.01365789 [kcal/mol]       0.05714461 [kJ/mol]

    Exchange                        0.00000000 [mEh]       0.00000000 [kcal/mol]       0.00000000 [kJ/mol]
      Exch10                        0.00000000 [mEh]       0.00000000 [kcal/mol]       0.00000000 [kJ/mol]
      Exch10(S^2)                   0.00000000 [mEh]       0.00000000 [kcal/mol]       0.00000000 [kJ/mol]

    Induction                      -0.00006949 [mEh]      -0.00004361 [kcal/mol]      -0.00018246 [kJ/mol]
      Ind20,r                      -0.00004042 [mEh]      -0.00002536 [kcal/mol]      -0.00010612 [kJ/mol]
      Exch-Ind20,r                  0.00000000 [mEh]       0.00000000 [kcal/mol]       0.00000000 [kJ/mol]
      delta HF,r (2)               -0.00002908 [mEh]      -0.00001825 [kcal/mol]      -0.00007634 [kJ/mol]

    Dispersion                     -0.00047651 [mEh]      -0.00029901 [kcal/mol]      -0.00125107 [kJ/mol]
      Disp20                       -0.00047651 [mEh]      -0.00029901 [kcal/mol]      -0.00125107 [kJ/mol]
      Exch-Disp20                   0.00000000 [mEh]       0.00000000 [kcal/mol]       0.00000000 [kJ/mol]
      Disp20 (SS)                  -0.00023825 [mEh]      -0.00014951 [kcal/mol]      -0.00062554 [kJ/mol]
      Disp20 (OS)                  -0.00023825 [mEh]      -0.00014951 [kcal/mol]      -0.00062554 [kJ/mol]
      Exch-Disp20 (SS)              0.00000000 [mEh]       0.00000000 [kcal/mol]       0.00000000 [kJ/mol]
      Exch-Disp20 (OS)              0.00000000 [mEh]       0.00000000 [kcal/mol]       0.00000000 [kJ/mol]

  Total HF                          0.02169574 [mEh]       0.01361428 [kcal/mol]       0.05696216 [kJ/mol]
  Total SAPT0                       0.02121923 [mEh]       0.01331527 [kcal/mol]       0.05571108 [kJ/mol]

  Special recipe for scaled SAPT0 (see Manual):
    Electrostatics sSAPT0           0.02176523 [mEh]       0.01365789 [kcal/mol]       0.05714461 [kJ/mol]
    Exchange sSAPT0                 0.00000000 [mEh]       0.00000000 [kcal/mol]       0.00000000 [kJ/mol]
    Induction sSAPT0               -0.00006949 [mEh]      -0.00004361 [kcal/mol]      -0.00018246 [kJ/mol]
    Dispersion sSAPT0              -0.00047651 [mEh]      -0.00029901 [kcal/mol]      -0.00125107 [kJ/mol]
  Total sSAPT0                      0.02121923 [mEh]       0.01331527 [kcal/mol]       0.05571108 [kJ/mol]
  --------------------------------------------------------------------------------------------------------

*** Psi4 exiting successfully. Buy a developer a beer!
