                               Psi4 1.4rc3

  ==> Input File <==

--------------------------------------------------------------------------
# PSI4 file produced by CrystaLattE

# Generated from:               acetic_acid.xyz
# Psithon input for N-mer:      2mer-0+18
# Number of atoms per monomer:  [8, 8]
# Number of replicas:           2
# COM priority:                 3.974723506548e-04
# Minimum COM separations:      7.197
# Separation priority:          1.192246083002e-03
# Minimum monomer separations:  4.991
# Cutoff priority:              1.264215776498e-04
# Nuclear repulsion energy:     318.52049892439146

memory 7 GB

molecule Dimer_0_18 {
  O           -5.53102237       2.93940290       1.97762624
  O           -2.40708886       0.90817734       0.04905909
  H           -0.50304887       1.37579205       4.63880908
  H            0.00000000       4.25104285       3.09072238
  H           -2.38948215       4.01916779       5.40195041
  H           -3.74771411       0.47147930      -1.21557512
  C           -1.41859782       2.98500500       3.84405190
  C           -3.32263781       2.28628814       1.91221413
--
  O           -5.38513820      -8.65435033      -3.47338325
  O           -8.50907170     -10.68557590      -5.40195041
  H          -10.41311169     -10.21796119      -0.81220041
  H          -10.91616057      -7.34271038      -2.36028711
  H           -8.52667842      -7.57458545      -0.04905909
  H           -7.16844646     -11.12227394      -6.66658461
  C           -9.49756274      -8.60874824      -1.60695760
  C           -7.59352275      -9.30746510      -3.53879536
units = au
no_com
no_reorient
}

set {
  e_convergence 10
  d_convergence 10
  scf_type df
  mp2_type df
  cc_type df
  freeze_core true
}

energy('sapt0/aug-cc-pvdz')

--------------------------------------------------------------------------

  //              Dimer HF             //
    Molecular point group: c1
  Charge       = 0
  Multiplicity = 1
  Basis Set: AUG-CC-PVDZ
    Blend: AUG-CC-PVDZ
  Basis Set: (AUG-CC-PVDZ AUX)
    Blend: AUG-CC-PVDZ-JKFIT
  @DF-RHF Final Energy:  -455.68886886928755
    Total Energy =                       -455.6888688692875462
  //            Monomer A HF           //
    Molecular point group: c1
  Multiplicity = 1
  Basis Set: AUG-CC-PVDZ
    Blend: AUG-CC-PVDZ
  Basis Set: (AUG-CC-PVDZ AUX)
    Blend: AUG-CC-PVDZ-JKFIT
  @DF-RHF Final Energy:  -227.84410334245905
    Total Energy =                       -227.8441033424590501
  //            Monomer B HF           //
    Molecular point group: c1

    Geometry (in Bohr), charge = 0, multiplicity = 1:

       Center              X                  Y                   Z               Mass
    ------------   -----------------  -----------------  -----------------  -----------------
      Gh(O)          -5.531022370000     2.939402900000     1.977626240000    15.994914619570
      Gh(O)          -2.407088860000     0.908177340000     0.049059090000    15.994914619570
      Gh(H)          -0.503048870000     1.375792050000     4.638809080000     1.007825032230
      Gh(H)           0.000000000000     4.251042850000     3.090722380000     1.007825032230
      Gh(H)          -2.389482150000     4.019167790000     5.401950410000     1.007825032230
      Gh(H)          -3.747714110000     0.471479300000    -1.215575120000     1.007825032230
      Gh(C)          -1.418597820000     2.985005000000     3.844051900000    12.000000000000
      Gh(C)          -3.322637810000     2.286288140000     1.912214130000    12.000000000000
         O           -5.385138200000    -8.654350330000    -3.473383250000    15.994914619570
         O           -8.509071700000   -10.685575900000    -5.401950410000    15.994914619570
         H          -10.413111690000   -10.217961190000    -0.812200410000     1.007825032230
         H          -10.916160570000    -7.342710380000    -2.360287110000     1.007825032230
         H           -8.526678420000    -7.574585450000    -0.049059090000     1.007825032230
         H           -7.168446460000   -11.122273940000    -6.666584610000     1.007825032230
         C           -9.497562740000    -8.608748240000    -1.606957600000    12.000000000000
         C           -7.593522750000    -9.307465100000    -3.538795360000    12.000000000000

  Charge       = 0
  Multiplicity = 1
  Basis Set: AUG-CC-PVDZ
    Blend: AUG-CC-PVDZ
  Basis Set: (AUG-CC-PVDZ AUX)
    Blend: AUG-CC-PVDZ-JKFIT

    Orbital Energies [Eh]
    ---------------------

    Doubly Occupied:

       1A    -20.629478     2A    -20.552820     3A    -11.396109
       4A    -11.250969     5A     -1.475853     6A     -1.357488
       7A     -1.033002     8A     -0.837932     9A     -0.703066
      10A     -0.688465    11A     -0.657748    12A     -0.576539
      13A     -0.569698    14A     -0.561407    15A     -0.475348
      16A     -0.452436

  @DF-RHF Final Energy:  -227.84411042089084

   => Energetics <=

    Nuclear Repulsion Energy =            121.7484302822129933
    One-Electron Energy =                -552.7483650508490882
    Two-Electron Energy =                 203.1558243477452379
    Total Energy =                       -227.8441104208908428

  Dipole Moment: [D]
     X:    -2.1042      Y:    -0.7182      Z:    -0.2104     Total:     2.2333

    SAPT Results
  --------------------------------------------------------------------------------------------------------
    Electrostatics                 -0.63688097 [mEh]      -0.39964884 [kcal/mol]      -1.67213076 [kJ/mol]
      Elst10,r                     -0.63688097 [mEh]      -0.39964884 [kcal/mol]      -1.67213076 [kJ/mol]

    Exchange                        0.00026194 [mEh]       0.00016437 [kcal/mol]       0.00068772 [kJ/mol]
      Exch10                        0.00026194 [mEh]       0.00016437 [kcal/mol]       0.00068772 [kJ/mol]
      Exch10(S^2)                   0.00026194 [mEh]       0.00016437 [kcal/mol]       0.00068771 [kJ/mol]

    Induction                      -0.01848690 [mEh]      -0.01160071 [kcal/mol]      -0.04853736 [kJ/mol]
      Ind20,r                      -0.01818583 [mEh]      -0.01141178 [kcal/mol]      -0.04774688 [kJ/mol]
      Exch-Ind20,r                  0.00005154 [mEh]       0.00003234 [kcal/mol]       0.00013533 [kJ/mol]
      delta HF,r (2)               -0.00035262 [mEh]      -0.00022127 [kcal/mol]      -0.00092581 [kJ/mol]

    Dispersion                     -0.11586231 [mEh]      -0.07270470 [kcal/mol]      -0.30419645 [kJ/mol]
      Disp20                       -0.11591453 [mEh]      -0.07273747 [kcal/mol]      -0.30433356 [kJ/mol]
      Exch-Disp20                   0.00005222 [mEh]       0.00003277 [kcal/mol]       0.00013711 [kJ/mol]
      Disp20 (SS)                  -0.05795727 [mEh]      -0.03636873 [kcal/mol]      -0.15216678 [kJ/mol]
      Disp20 (OS)                  -0.05795727 [mEh]      -0.03636873 [kcal/mol]      -0.15216678 [kJ/mol]
      Exch-Disp20 (SS)              0.00003964 [mEh]       0.00002488 [kcal/mol]       0.00010408 [kJ/mol]
      Exch-Disp20 (OS)              0.00001258 [mEh]       0.00000789 [kcal/mol]       0.00003302 [kJ/mol]

  Total HF                         -0.65510594 [mEh]      -0.41108518 [kcal/mol]      -1.71998040 [kJ/mol]
  Total SAPT0                      -0.77096825 [mEh]      -0.48378988 [kcal/mol]      -2.02417685 [kJ/mol]

  Special recipe for scaled SAPT0 (see Manual):
    Electrostatics sSAPT0          -0.63688097 [mEh]      -0.39964884 [kcal/mol]      -1.67213076 [kJ/mol]
    Exchange sSAPT0                 0.00026194 [mEh]       0.00016437 [kcal/mol]       0.00068772 [kJ/mol]
    Induction sSAPT0               -0.01848690 [mEh]      -0.01160071 [kcal/mol]      -0.04853736 [kJ/mol]
    Dispersion sSAPT0              -0.11586231 [mEh]      -0.07270470 [kcal/mol]      -0.30419645 [kJ/mol]
  Total sSAPT0                     -0.77096825 [mEh]      -0.48378988 [kcal/mol]      -2.02417685 [kJ/mol]
  --------------------------------------------------------------------------------------------------------

*** Psi4 exiting successfully. Buy a developer a beer!
