                               Psi4 1.4rc3

  ==> Input File <==

--------------------------------------------------------------------------
# PSI4 file produced by CrystaLattE

# Generated from:               acetic_acid.xyz
# Psithon input for N-mer:      2mer-0+167
# Number of atoms per monomer:  [8, 8]
# Number of replicas:           2
# COM priority:                 5.875672826207e-05
# Minimum COM separations:      13.612
# Separation priority:          8.272975550064e-05
# Minimum monomer separations:  12.145
# Cutoff priority:              3.604809518105e-06
# Nuclear repulsion energy:     282.96983297430927

memory 7 GB

molecule Dimer_0_167 {
  O           -5.53102237       2.93940290       1.97762624
  O           -2.40708886       0.90817734       0.04905909
  H           -0.50304887       1.37579205       4.63880908
  H            0.00000000       4.25104285       3.09072238
  H           -2.38948215       4.01916779       5.40195041
  H           -3.74771411       0.47147930      -1.21557512
  C           -1.41859782       2.98500500       3.84405190
  C           -3.32263781       2.28628814       1.91221413
--
  O           -5.38513820     -16.38351916      18.33065473
  O           -8.50907170     -18.41474473      16.40208757
  H          -10.41311169     -17.94713001      20.99183757
  H          -10.91616057     -15.07187921      19.44375087
  H           -8.52667842     -15.30375427      21.75497890
  H           -7.16844646     -18.85144277      15.13745337
  C           -9.49756274     -16.33791706      20.19708038
  C           -7.59352275     -17.03663393      18.26524262
units = au
no_com
no_reorient
}

set {
  e_convergence 10
  d_convergence 10
  scf_type df
  mp2_type df
  cc_type df
  freeze_core true
}

energy('sapt0/aug-cc-pvdz')

--------------------------------------------------------------------------

  //              Dimer HF             //
    Molecular point group: c1
  Charge       = 0
  Multiplicity = 1
  Basis Set: AUG-CC-PVDZ
    Blend: AUG-CC-PVDZ
  Basis Set: (AUG-CC-PVDZ AUX)
    Blend: AUG-CC-PVDZ-JKFIT
  @DF-RHF Final Energy:  -455.68821670013915
    Total Energy =                       -455.6882167001391508
  //            Monomer A HF           //
    Molecular point group: c1
  Multiplicity = 1
  Basis Set: AUG-CC-PVDZ
    Blend: AUG-CC-PVDZ
  Basis Set: (AUG-CC-PVDZ AUX)
    Blend: AUG-CC-PVDZ-JKFIT
  @DF-RHF Final Energy:  -227.84408589044170
    Total Energy =                       -227.8440858904417041
  //            Monomer B HF           //
    Molecular point group: c1

    Geometry (in Bohr), charge = 0, multiplicity = 1:

       Center              X                  Y                   Z               Mass
    ------------   -----------------  -----------------  -----------------  -----------------
      Gh(O)          -5.531022370000     2.939402900000     1.977626240000    15.994914619570
      Gh(O)          -2.407088860000     0.908177340000     0.049059090000    15.994914619570
      Gh(H)          -0.503048870000     1.375792050000     4.638809080000     1.007825032230
      Gh(H)           0.000000000000     4.251042850000     3.090722380000     1.007825032230
      Gh(H)          -2.389482150000     4.019167790000     5.401950410000     1.007825032230
      Gh(H)          -3.747714110000     0.471479300000    -1.215575120000     1.007825032230
      Gh(C)          -1.418597820000     2.985005000000     3.844051900000    12.000000000000
      Gh(C)          -3.322637810000     2.286288140000     1.912214130000    12.000000000000
         O           -5.385138200000   -16.383519160000    18.330654730000    15.994914619570
         O           -8.509071700000   -18.414744730000    16.402087570000    15.994914619570
         H          -10.413111690000   -17.947130010000    20.991837570000     1.007825032230
         H          -10.916160570000   -15.071879210000    19.443750870000     1.007825032230
         H           -8.526678420000   -15.303754270000    21.754978900000     1.007825032230
         H           -7.168446460000   -18.851442770000    15.137453370000     1.007825032230
         C           -9.497562740000   -16.337917060000    20.197080380000    12.000000000000
         C           -7.593522750000   -17.036633930000    18.265242620000    12.000000000000

  Charge       = 0
  Multiplicity = 1
  Basis Set: AUG-CC-PVDZ
    Blend: AUG-CC-PVDZ
  Basis Set: (AUG-CC-PVDZ AUX)
    Blend: AUG-CC-PVDZ-JKFIT

    Orbital Energies [Eh]
    ---------------------

    Doubly Occupied:

       1A    -20.629476     2A    -20.552804     3A    -11.396108
       4A    -11.250979     5A     -1.475853     6A     -1.357486
       7A     -1.032999     8A     -0.837930     9A     -0.703065
      10A     -0.688465    11A     -0.657749    12A     -0.576538
      13A     -0.569697    14A     -0.561403    15A     -0.475343
      16A     -0.452434

  @DF-RHF Final Energy:  -227.84408589516704

   => Energetics <=

    Nuclear Repulsion Energy =            121.7484302472189910
    One-Electron Energy =                -552.7483714881063861
    Two-Electron Energy =                 203.1558553457203402
    Total Energy =                       -227.8440858951670407

  Dipole Moment: [D]
     X:    -2.1048      Y:    -0.7191      Z:    -0.2116     Total:     2.2342

    SAPT Results
  --------------------------------------------------------------------------------------------------------
    Electrostatics                 -0.04475598 [mEh]      -0.02808480 [kcal/mol]      -0.11750682 [kJ/mol]
      Elst10,r                     -0.04475598 [mEh]      -0.02808480 [kcal/mol]      -0.11750682 [kJ/mol]

    Exchange                       -0.00000000 [mEh]      -0.00000000 [kcal/mol]      -0.00000000 [kJ/mol]
      Exch10                       -0.00000000 [mEh]      -0.00000000 [kcal/mol]      -0.00000000 [kJ/mol]
      Exch10(S^2)                  -0.00000000 [mEh]      -0.00000000 [kcal/mol]      -0.00000000 [kJ/mol]

    Induction                      -0.00015855 [mEh]      -0.00009949 [kcal/mol]      -0.00041626 [kJ/mol]
      Ind20,r                      -0.00013680 [mEh]      -0.00008584 [kcal/mol]      -0.00035917 [kJ/mol]
      Exch-Ind20,r                  0.00000000 [mEh]       0.00000000 [kcal/mol]       0.00000000 [kJ/mol]
      delta HF,r (2)               -0.00002175 [mEh]      -0.00001365 [kcal/mol]      -0.00005710 [kJ/mol]

    Dispersion                     -0.00169048 [mEh]      -0.00106079 [kcal/mol]      -0.00443836 [kJ/mol]
      Disp20                       -0.00169048 [mEh]      -0.00106079 [kcal/mol]      -0.00443836 [kJ/mol]
      Exch-Disp20                   0.00000000 [mEh]       0.00000000 [kcal/mol]       0.00000000 [kJ/mol]
      Disp20 (SS)                  -0.00084524 [mEh]      -0.00053040 [kcal/mol]      -0.00221918 [kJ/mol]
      Disp20 (OS)                  -0.00084524 [mEh]      -0.00053040 [kcal/mol]      -0.00221918 [kJ/mol]
      Exch-Disp20 (SS)              0.00000000 [mEh]       0.00000000 [kcal/mol]       0.00000000 [kJ/mol]
      Exch-Disp20 (OS)              0.00000000 [mEh]       0.00000000 [kcal/mol]       0.00000000 [kJ/mol]

  Total HF                         -0.04491453 [mEh]      -0.02818429 [kcal/mol]      -0.11792308 [kJ/mol]
  Total SAPT0                      -0.04660501 [mEh]      -0.02924509 [kcal/mol]      -0.12236144 [kJ/mol]

  Special recipe for scaled SAPT0 (see Manual):
    Electrostatics sSAPT0          -0.04475598 [mEh]      -0.02808480 [kcal/mol]      -0.11750682 [kJ/mol]
    Exchange sSAPT0                -0.00000000 [mEh]      -0.00000000 [kcal/mol]      -0.00000000 [kJ/mol]
    Induction sSAPT0               -0.00015855 [mEh]      -0.00009949 [kcal/mol]      -0.00041626 [kJ/mol]
    Dispersion sSAPT0              -0.00169048 [mEh]      -0.00106079 [kcal/mol]      -0.00443836 [kJ/mol]
  Total sSAPT0                     -0.04660501 [mEh]      -0.02924509 [kcal/mol]      -0.12236144 [kJ/mol]
  --------------------------------------------------------------------------------------------------------

*** Psi4 exiting successfully. Buy a developer a beer!
