                               Psi4 1.4rc3

  ==> Input File <==

--------------------------------------------------------------------------
# PSI4 file produced by CrystaLattE

# Generated from:               acetic_acid.xyz
# Psithon input for N-mer:      2mer-0+41
# Number of atoms per monomer:  [8, 8]
# Number of replicas:           2
# COM priority:                 1.195085190851e-04
# Minimum COM separations:      10.743
# Separation priority:          2.002480627996e-04
# Minimum monomer separations:  9.045
# Cutoff priority:              1.171541735089e-05
# Nuclear repulsion energy:     293.68221944438596

memory 7 GB

molecule Dimer_0_41 {
  O           -5.53102237       2.93940290       1.97762624
  O           -2.40708886       0.90817734       0.04905909
  H           -0.50304887       1.37579205       4.63880908
  H            0.00000000       4.25104285       3.09072238
  H           -2.38948215       4.01916779       5.40195041
  H           -3.74771411       0.47147930      -1.21557512
  C           -1.41859782       2.98500500       3.84405190
  C           -3.32263781       2.28628814       1.91221413
--
  O            7.04519948     -14.37857277       1.97762624
  O           10.16913299     -12.34734720       0.04905909
  H           12.07317298     -12.81496191       4.63880908
  H           12.57622185     -15.69021272       3.09072238
  H           10.18673970     -15.45833765       5.40195041
  H            8.82850774     -11.91064916      -1.21557512
  C           11.15762403     -14.42417486       3.84405190
  C            9.25358404     -13.72545800       1.91221413
units = au
no_com
no_reorient
}

set {
  e_convergence 10
  d_convergence 10
  scf_type df
  mp2_type df
  cc_type df
  freeze_core true
}

energy('sapt0/aug-cc-pvdz')

--------------------------------------------------------------------------

  //              Dimer HF             //
    Molecular point group: c1
  Charge       = 0
  Multiplicity = 1
  Basis Set: AUG-CC-PVDZ
    Blend: AUG-CC-PVDZ
  Basis Set: (AUG-CC-PVDZ AUX)
    Blend: AUG-CC-PVDZ-JKFIT
  @DF-RHF Final Energy:  -455.68816951108704
    Total Energy =                       -455.6881695110870396
  //            Monomer A HF           //
    Molecular point group: c1
  Multiplicity = 1
  Basis Set: AUG-CC-PVDZ
    Blend: AUG-CC-PVDZ
  Basis Set: (AUG-CC-PVDZ AUX)
    Blend: AUG-CC-PVDZ-JKFIT
  @DF-RHF Final Energy:  -227.84408621421466
    Total Energy =                       -227.8440862142146557
  //            Monomer B HF           //
    Molecular point group: c1

    Geometry (in Bohr), charge = 0, multiplicity = 1:

       Center              X                  Y                   Z               Mass
    ------------   -----------------  -----------------  -----------------  -----------------
      Gh(O)          -5.531022370000     2.939402900000     1.977626240000    15.994914619570
      Gh(O)          -2.407088860000     0.908177340000     0.049059090000    15.994914619570
      Gh(H)          -0.503048870000     1.375792050000     4.638809080000     1.007825032230
      Gh(H)           0.000000000000     4.251042850000     3.090722380000     1.007825032230
      Gh(H)          -2.389482150000     4.019167790000     5.401950410000     1.007825032230
      Gh(H)          -3.747714110000     0.471479300000    -1.215575120000     1.007825032230
      Gh(C)          -1.418597820000     2.985005000000     3.844051900000    12.000000000000
      Gh(C)          -3.322637810000     2.286288140000     1.912214130000    12.000000000000
         O            7.045199480000   -14.378572770000     1.977626240000    15.994914619570
         O           10.169132990000   -12.347347200000     0.049059090000    15.994914619570
         H           12.073172980000   -12.814961910000     4.638809080000     1.007825032230
         H           12.576221850000   -15.690212720000     3.090722380000     1.007825032230
         H           10.186739700000   -15.458337650000     5.401950410000     1.007825032230
         H            8.828507740000   -11.910649160000    -1.215575120000     1.007825032230
         C           11.157624030000   -14.424174860000     3.844051900000    12.000000000000
         C            9.253584040000   -13.725458000000     1.912214130000    12.000000000000

  Charge       = 0
  Multiplicity = 1
  Basis Set: AUG-CC-PVDZ
    Blend: AUG-CC-PVDZ
  Basis Set: (AUG-CC-PVDZ AUX)
    Blend: AUG-CC-PVDZ-JKFIT

    Orbital Energies [Eh]
    ---------------------

    Doubly Occupied:

       1A    -20.629476     2A    -20.552804     3A    -11.396108
       4A    -11.250979     5A     -1.475852     6A     -1.357486
       7A     -1.032999     8A     -0.837930     9A     -0.703065
      10A     -0.688465    11A     -0.657749    12A     -0.576538
      13A     -0.569697    14A     -0.561403    15A     -0.475343
      16A     -0.452433

  @DF-RHF Final Energy:  -227.84408622468942

   => Energetics <=

    Nuclear Repulsion Energy =            121.7484301522181909
    One-Electron Energy =                -552.7483755942578227
    Two-Electron Energy =                 203.1558592173502120
    Total Energy =                       -227.8440862246894199

  Dipole Moment: [D]
     X:     2.1047      Y:     0.7191      Z:    -0.2116     Total:     2.2342

    SAPT Results
  --------------------------------------------------------------------------------------------------------
    Electrostatics                  0.00332857 [mEh]       0.00208871 [kcal/mol]       0.00873916 [kJ/mol]
      Elst10,r                      0.00332857 [mEh]       0.00208871 [kcal/mol]       0.00873916 [kJ/mol]

    Exchange                        0.00000002 [mEh]       0.00000001 [kcal/mol]       0.00000004 [kJ/mol]
      Exch10                        0.00000002 [mEh]       0.00000001 [kcal/mol]       0.00000004 [kJ/mol]
      Exch10(S^2)                   0.00000002 [mEh]       0.00000001 [kcal/mol]       0.00000004 [kJ/mol]

    Induction                      -0.00040077 [mEh]      -0.00025149 [kcal/mol]      -0.00105222 [kJ/mol]
      Ind20,r                      -0.00033877 [mEh]      -0.00021258 [kcal/mol]      -0.00088945 [kJ/mol]
      Exch-Ind20,r                  0.00000041 [mEh]       0.00000026 [kcal/mol]       0.00000108 [kJ/mol]
      delta HF,r (2)               -0.00006240 [mEh]      -0.00003916 [kcal/mol]      -0.00016384 [kJ/mol]

    Dispersion                     -0.00787228 [mEh]      -0.00493993 [kcal/mol]      -0.02066867 [kJ/mol]
      Disp20                       -0.00787234 [mEh]      -0.00493996 [kcal/mol]      -0.02066881 [kJ/mol]
      Exch-Disp20                   0.00000005 [mEh]       0.00000003 [kcal/mol]       0.00000014 [kJ/mol]
      Disp20 (SS)                  -0.00393617 [mEh]      -0.00246998 [kcal/mol]      -0.01033441 [kJ/mol]
      Disp20 (OS)                  -0.00393617 [mEh]      -0.00246998 [kcal/mol]      -0.01033441 [kJ/mol]
      Exch-Disp20 (SS)              0.00000004 [mEh]       0.00000003 [kcal/mol]       0.00000012 [kJ/mol]
      Exch-Disp20 (OS)              0.00000001 [mEh]       0.00000001 [kcal/mol]       0.00000002 [kJ/mol]

  Total HF                          0.00292782 [mEh]       0.00183723 [kcal/mol]       0.00768698 [kJ/mol]
  Total SAPT0                      -0.00494446 [mEh]      -0.00310270 [kcal/mol]      -0.01298169 [kJ/mol]

  Special recipe for scaled SAPT0 (see Manual):
    Electrostatics sSAPT0           0.00332857 [mEh]       0.00208871 [kcal/mol]       0.00873916 [kJ/mol]
    Exchange sSAPT0                 0.00000002 [mEh]       0.00000001 [kcal/mol]       0.00000004 [kJ/mol]
    Induction sSAPT0               -0.00040077 [mEh]      -0.00025149 [kcal/mol]      -0.00105222 [kJ/mol]
    Dispersion sSAPT0              -0.00787228 [mEh]      -0.00493993 [kcal/mol]      -0.02066867 [kJ/mol]
  Total sSAPT0                     -0.00494446 [mEh]      -0.00310270 [kcal/mol]      -0.01298169 [kJ/mol]
  --------------------------------------------------------------------------------------------------------

*** Psi4 exiting successfully. Buy a developer a beer!
