                               Psi4 1.4rc3

  ==> Input File <==

--------------------------------------------------------------------------
# PSI4 file produced by CrystaLattE

# Generated from:               acetic_acid.xyz
# Psithon input for N-mer:      2mer-0+25
# Number of atoms per monomer:  [8, 8]
# Number of replicas:           2
# COM priority:                 1.573928823871e-04
# Minimum COM separations:      9.801
# Separation priority:          4.629911938618e-04
# Minimum monomer separations:  6.840
# Cutoff priority:              3.581764060012e-05
# Nuclear repulsion energy:     299.3138060343223

memory 7 GB

molecule Dimer_0_25 {
  O           -5.53102237       2.93940290       1.97762624
  O           -2.40708886       0.90817734       0.04905909
  H           -0.50304887       1.37579205       4.63880908
  H            0.00000000       4.25104285       3.09072238
  H           -2.38948215       4.01916779       5.40195041
  H           -3.74771411       0.47147930      -1.21557512
  C           -1.41859782       2.98500500       3.84405190
  C           -3.32263781       2.28628814       1.91221413
--
  O            7.19108365       4.94434930     -14.37540224
  O            4.06715015       6.97557487     -16.30396940
  H            2.16311016       6.50796015     -11.71421941
  H            1.66006128       3.63270935     -13.26230610
  H            4.04954344       3.86458441     -10.95107808
  H            5.40777540       7.41227290     -17.56860360
  C            3.07865911       4.89874720     -12.50897659
  C            4.98269910       5.59746406     -14.44081435
units = au
no_com
no_reorient
}

set {
  e_convergence 10
  d_convergence 10
  scf_type df
  mp2_type df
  cc_type df
  freeze_core true
}

energy('sapt0/aug-cc-pvdz')

--------------------------------------------------------------------------

  //              Dimer HF             //
    Molecular point group: c1
  Charge       = 0
  Multiplicity = 1
  Basis Set: AUG-CC-PVDZ
    Blend: AUG-CC-PVDZ
  Basis Set: (AUG-CC-PVDZ AUX)
    Blend: AUG-CC-PVDZ-JKFIT
  @DF-RHF Final Energy:  -455.68815056967395
    Total Energy =                       -455.6881505696739509
  //            Monomer A HF           //
    Molecular point group: c1
  Multiplicity = 1
  Basis Set: AUG-CC-PVDZ
    Blend: AUG-CC-PVDZ
  Basis Set: (AUG-CC-PVDZ AUX)
    Blend: AUG-CC-PVDZ-JKFIT
  @DF-RHF Final Energy:  -227.84409207342179
    Total Energy =                       -227.8440920734217912
  //            Monomer B HF           //
    Molecular point group: c1

    Geometry (in Bohr), charge = 0, multiplicity = 1:

       Center              X                  Y                   Z               Mass
    ------------   -----------------  -----------------  -----------------  -----------------
      Gh(O)          -5.531022370000     2.939402900000     1.977626240000    15.994914619570
      Gh(O)          -2.407088860000     0.908177340000     0.049059090000    15.994914619570
      Gh(H)          -0.503048870000     1.375792050000     4.638809080000     1.007825032230
      Gh(H)           0.000000000000     4.251042850000     3.090722380000     1.007825032230
      Gh(H)          -2.389482150000     4.019167790000     5.401950410000     1.007825032230
      Gh(H)          -3.747714110000     0.471479300000    -1.215575120000     1.007825032230
      Gh(C)          -1.418597820000     2.985005000000     3.844051900000    12.000000000000
      Gh(C)          -3.322637810000     2.286288140000     1.912214130000    12.000000000000
         O            7.191083650000     4.944349300000   -14.375402240000    15.994914619570
         O            4.067150150000     6.975574870000   -16.303969400000    15.994914619570
         H            2.163110160000     6.507960150000   -11.714219410000     1.007825032230
         H            1.660061280000     3.632709350000   -13.262306100000     1.007825032230
         H            4.049543440000     3.864584410000   -10.951078080000     1.007825032230
         H            5.407775400000     7.412272900000   -17.568603600000     1.007825032230
         C            3.078659110000     4.898747200000   -12.508976590000    12.000000000000
         C            4.982699100000     5.597464060000   -14.440814350000    12.000000000000

  Charge       = 0
  Multiplicity = 1
  Basis Set: AUG-CC-PVDZ
    Blend: AUG-CC-PVDZ
  Basis Set: (AUG-CC-PVDZ AUX)
    Blend: AUG-CC-PVDZ-JKFIT

    Orbital Energies [Eh]
    ---------------------

    Doubly Occupied:

       1A    -20.629476     2A    -20.552805     3A    -11.396109
       4A    -11.250975     5A     -1.475853     6A     -1.357487
       7A     -1.032999     8A     -0.837930     9A     -0.703066
      10A     -0.688465    11A     -0.657749    12A     -0.576538
      13A     -0.569697    14A     -0.561402    15A     -0.475343
      16A     -0.452434

  @DF-RHF Final Energy:  -227.84408797802996

   => Energetics <=

    Nuclear Repulsion Energy =            121.7484302640628471
    One-Electron Energy =                -552.7483814167655964
    Two-Electron Energy =                 203.1558631746727883
    Total Energy =                       -227.8440879780299611

  Dipole Moment: [D]
     X:    -2.1047      Y:     0.7191      Z:    -0.2116     Total:     2.2342

    SAPT Results
  --------------------------------------------------------------------------------------------------------
    Electrostatics                  0.03060001 [mEh]       0.01920180 [kcal/mol]       0.08034032 [kJ/mol]
      Elst10,r                      0.03060001 [mEh]       0.01920180 [kcal/mol]       0.08034032 [kJ/mol]

    Exchange                        0.00001360 [mEh]       0.00000853 [kcal/mol]       0.00003569 [kJ/mol]
      Exch10                        0.00001360 [mEh]       0.00000853 [kcal/mol]       0.00003569 [kJ/mol]
      Exch10(S^2)                   0.00001360 [mEh]       0.00000853 [kcal/mol]       0.00003569 [kJ/mol]

    Induction                      -0.00113183 [mEh]      -0.00071023 [kcal/mol]      -0.00297161 [kJ/mol]
      Ind20,r                      -0.00104158 [mEh]      -0.00065360 [kcal/mol]      -0.00273467 [kJ/mol]
      Exch-Ind20,r                  0.00002145 [mEh]       0.00001346 [kcal/mol]       0.00005631 [kJ/mol]
      delta HF,r (2)               -0.00011169 [mEh]      -0.00007009 [kcal/mol]      -0.00029325 [kJ/mol]

    Dispersion                     -0.02138531 [mEh]      -0.01341948 [kcal/mol]      -0.05614712 [kJ/mol]
      Disp20                       -0.02138626 [mEh]      -0.01342008 [kcal/mol]      -0.05614961 [kJ/mol]
      Exch-Disp20                   0.00000095 [mEh]       0.00000059 [kcal/mol]       0.00000248 [kJ/mol]
      Disp20 (SS)                  -0.01069313 [mEh]      -0.00671004 [kcal/mol]      -0.02807480 [kJ/mol]
      Disp20 (OS)                  -0.01069313 [mEh]      -0.00671004 [kcal/mol]      -0.02807480 [kJ/mol]
      Exch-Disp20 (SS)              0.00000076 [mEh]       0.00000048 [kcal/mol]       0.00000200 [kJ/mol]
      Exch-Disp20 (OS)              0.00000019 [mEh]       0.00000012 [kcal/mol]       0.00000049 [kJ/mol]

  Total HF                          0.02948178 [mEh]       0.01850009 [kcal/mol]       0.07740440 [kJ/mol]
  Total SAPT0                       0.00809647 [mEh]       0.00508061 [kcal/mol]       0.02125727 [kJ/mol]

  Special recipe for scaled SAPT0 (see Manual):
    Electrostatics sSAPT0           0.03060001 [mEh]       0.01920180 [kcal/mol]       0.08034032 [kJ/mol]
    Exchange sSAPT0                 0.00001360 [mEh]       0.00000853 [kcal/mol]       0.00003569 [kJ/mol]
    Induction sSAPT0               -0.00113183 [mEh]      -0.00071023 [kcal/mol]      -0.00297161 [kJ/mol]
    Dispersion sSAPT0              -0.02138531 [mEh]      -0.01341948 [kcal/mol]      -0.05614712 [kJ/mol]
  Total sSAPT0                      0.00809647 [mEh]       0.00508061 [kcal/mol]       0.02125727 [kJ/mol]
  --------------------------------------------------------------------------------------------------------

*** Psi4 exiting successfully. Buy a developer a beer!
