                               Psi4 1.4rc3

  ==> Input File <==

--------------------------------------------------------------------------
# PSI4 file produced by CrystaLattE

# Generated from:               acetic_acid.xyz
# Psithon input for N-mer:      2mer-0+161
# Number of atoms per monomer:  [8, 8]
# Number of replicas:           2
# COM priority:                 4.327891580351e-05
# Minimum COM separations:      15.072
# Separation priority:          8.500214605467e-05
# Minimum monomer separations:  12.035
# Cutoff priority:              3.737431033022e-06
# Nuclear repulsion energy:     279.59630351546605

memory 7 GB

molecule Dimer_0_161 {
  O           -5.53102237       2.93940290       1.97762624
  O           -2.40708886       0.90817734       0.04905909
  H           -0.50304887       1.37579205       4.63880908
  H            0.00000000       4.25104285       3.09072238
  H           -2.38948215       4.01916779       5.40195041
  H           -3.74771411       0.47147930      -1.21557512
  C           -1.41859782       2.98500500       3.84405190
  C           -3.32263781       2.28628814       1.91221413
--
  O           19.62142133      10.66857173      12.87964524
  O           22.74535484       8.63734616      10.95107808
  H           24.64939483       9.10496088      15.54082807
  H           25.15244370      11.98021168      13.99274137
  H           22.76296155      11.74833662      16.30396940
  H           21.40472959       8.20064812       9.68644387
  C           23.73384588      10.71417383      14.74607089
  C           21.82980589      10.01545696      12.81423312
units = au
no_com
no_reorient
}

set {
  e_convergence 10
  d_convergence 10
  scf_type df
  mp2_type df
  cc_type df
  freeze_core true
}

energy('sapt0/aug-cc-pvdz')

--------------------------------------------------------------------------

  //              Dimer HF             //
    Molecular point group: c1
  Charge       = 0
  Multiplicity = 1
  Basis Set: AUG-CC-PVDZ
    Blend: AUG-CC-PVDZ
  Basis Set: (AUG-CC-PVDZ AUX)
    Blend: AUG-CC-PVDZ-JKFIT
  @DF-RHF Final Energy:  -455.68819828158416
    Total Energy =                       -455.6881982815841639
  //            Monomer A HF           //
    Molecular point group: c1
  Multiplicity = 1
  Basis Set: AUG-CC-PVDZ
    Blend: AUG-CC-PVDZ
  Basis Set: (AUG-CC-PVDZ AUX)
    Blend: AUG-CC-PVDZ-JKFIT
  @DF-RHF Final Energy:  -227.84408589114867
    Total Energy =                       -227.8440858911486657
  //            Monomer B HF           //
    Molecular point group: c1

    Geometry (in Bohr), charge = 0, multiplicity = 1:

       Center              X                  Y                   Z               Mass
    ------------   -----------------  -----------------  -----------------  -----------------
      Gh(O)          -5.531022370000     2.939402900000     1.977626240000    15.994914619570
      Gh(O)          -2.407088860000     0.908177340000     0.049059090000    15.994914619570
      Gh(H)          -0.503048870000     1.375792050000     4.638809080000     1.007825032230
      Gh(H)           0.000000000000     4.251042850000     3.090722380000     1.007825032230
      Gh(H)          -2.389482150000     4.019167790000     5.401950410000     1.007825032230
      Gh(H)          -3.747714110000     0.471479300000    -1.215575120000     1.007825032230
      Gh(C)          -1.418597820000     2.985005000000     3.844051900000    12.000000000000
      Gh(C)          -3.322637810000     2.286288140000     1.912214130000    12.000000000000
         O           19.621421330000    10.668571730000    12.879645240000    15.994914619570
         O           22.745354840000     8.637346160000    10.951078080000    15.994914619570
         H           24.649394830000     9.104960880000    15.540828070000     1.007825032230
         H           25.152443700000    11.980211680000    13.992741370000     1.007825032230
         H           22.762961550000    11.748336620000    16.303969400000     1.007825032230
         H           21.404729590000     8.200648120000     9.686443870000     1.007825032230
         C           23.733845880000    10.714173830000    14.746070890000    12.000000000000
         C           21.829805890000    10.015456960000    12.814233120000    12.000000000000

  Charge       = 0
  Multiplicity = 1
  Basis Set: AUG-CC-PVDZ
    Blend: AUG-CC-PVDZ
  Basis Set: (AUG-CC-PVDZ AUX)
    Blend: AUG-CC-PVDZ-JKFIT

    Orbital Energies [Eh]
    ---------------------

    Doubly Occupied:

       1A    -20.629476     2A    -20.552804     3A    -11.396108
       4A    -11.250979     5A     -1.475853     6A     -1.357486
       7A     -1.032999     8A     -0.837930     9A     -0.703065
      10A     -0.688465    11A     -0.657749    12A     -0.576538
      13A     -0.569697    14A     -0.561403    15A     -0.475343
      16A     -0.452434

  @DF-RHF Final Energy:  -227.84408589926326

   => Energetics <=

    Nuclear Repulsion Energy =            121.7484301272704386
    One-Electron Energy =                -552.7483712899073680
    Two-Electron Energy =                 203.1558552633736383
    Total Energy =                       -227.8440858992632627

  Dipole Moment: [D]
     X:     2.1048      Y:    -0.7191      Z:    -0.2116     Total:     2.2342

    SAPT Results
  --------------------------------------------------------------------------------------------------------
    Electrostatics                 -0.02631247 [mEh]      -0.01651132 [kcal/mol]      -0.06908337 [kJ/mol]
      Elst10,r                     -0.02631247 [mEh]      -0.01651132 [kcal/mol]      -0.06908337 [kJ/mol]

    Exchange                        0.00000000 [mEh]       0.00000000 [kcal/mol]       0.00000000 [kJ/mol]
      Exch10                        0.00000000 [mEh]       0.00000000 [kcal/mol]       0.00000000 [kJ/mol]
      Exch10(S^2)                   0.00000000 [mEh]       0.00000000 [kcal/mol]       0.00000000 [kJ/mol]

    Induction                      -0.00017870 [mEh]      -0.00011214 [kcal/mol]      -0.00046919 [kJ/mol]
      Ind20,r                      -0.00016575 [mEh]      -0.00010401 [kcal/mol]      -0.00043518 [kJ/mol]
      Exch-Ind20,r                  0.00000000 [mEh]       0.00000000 [kcal/mol]       0.00000000 [kJ/mol]
      delta HF,r (2)               -0.00001295 [mEh]      -0.00000813 [kcal/mol]      -0.00003401 [kJ/mol]

    Dispersion                     -0.00131136 [mEh]      -0.00082289 [kcal/mol]      -0.00344297 [kJ/mol]
      Disp20                       -0.00131136 [mEh]      -0.00082289 [kcal/mol]      -0.00344297 [kJ/mol]
      Exch-Disp20                   0.00000000 [mEh]       0.00000000 [kcal/mol]       0.00000000 [kJ/mol]
      Disp20 (SS)                  -0.00065568 [mEh]      -0.00041144 [kcal/mol]      -0.00172149 [kJ/mol]
      Disp20 (OS)                  -0.00065568 [mEh]      -0.00041144 [kcal/mol]      -0.00172149 [kJ/mol]
      Exch-Disp20 (SS)              0.00000000 [mEh]       0.00000000 [kcal/mol]       0.00000000 [kJ/mol]
      Exch-Disp20 (OS)              0.00000000 [mEh]       0.00000000 [kcal/mol]       0.00000000 [kJ/mol]

  Total HF                         -0.02649117 [mEh]      -0.01662346 [kcal/mol]      -0.06955256 [kJ/mol]
  Total SAPT0                      -0.02780253 [mEh]      -0.01744635 [kcal/mol]      -0.07299553 [kJ/mol]

  Special recipe for scaled SAPT0 (see Manual):
    Electrostatics sSAPT0          -0.02631247 [mEh]      -0.01651132 [kcal/mol]      -0.06908337 [kJ/mol]
    Exchange sSAPT0                 0.00000000 [mEh]       0.00000000 [kcal/mol]       0.00000000 [kJ/mol]
    Induction sSAPT0               -0.00017870 [mEh]      -0.00011214 [kcal/mol]      -0.00046919 [kJ/mol]
    Dispersion sSAPT0              -0.00131136 [mEh]      -0.00082289 [kcal/mol]      -0.00344297 [kJ/mol]
  Total sSAPT0                     -0.02780253 [mEh]      -0.01744635 [kcal/mol]      -0.07299553 [kJ/mol]
  --------------------------------------------------------------------------------------------------------

*** Psi4 exiting successfully. Buy a developer a beer!
