                               Psi4 1.4rc3

  ==> Input File <==

--------------------------------------------------------------------------
# PSI4 file produced by CrystaLattE

# Generated from:               acetic_acid.xyz
# Psithon input for N-mer:      2mer-0+385
# Number of atoms per monomer:  [8, 8]
# Number of replicas:           2
# COM priority:                 1.474251372222e-05
# Minimum COM separations:      21.581
# Separation priority:          2.206427822450e-05
# Minimum monomer separations:  18.867
# Cutoff priority:              6.188512895713e-07
# Nuclear repulsion energy:     268.64941100371345

memory 7 GB

molecule Dimer_0_385 {
  O           -5.53102237       2.93940290       1.97762624
  O           -2.40708886       0.90817734       0.04905909
  H           -0.50304887       1.37579205       4.63880908
  H            0.00000000       4.25104285       3.09072238
  H           -2.38948215       4.01916779       5.40195041
  H           -3.74771411       0.47147930      -1.21557512
  C           -1.41859782       2.98500500       3.84405190
  C           -3.32263781       2.28628814       1.91221413
--
  O           19.76730551     -31.84185681      -3.47338325
  O           16.64337200     -33.87308238      -5.40195041
  H           14.73933201     -33.40546766      -0.81220041
  H           14.23628314     -30.53021686      -2.36028711
  H           16.62576529     -30.76209193      -0.04905909
  H           17.98399725     -34.30978042      -6.66658461
  C           15.65488096     -31.79625472      -1.60695760
  C           17.55892095     -32.49497158      -3.53879536
units = au
no_com
no_reorient
}

set {
  e_convergence 10
  d_convergence 10
  scf_type df
  mp2_type df
  cc_type df
  freeze_core true
}

energy('sapt0/aug-cc-pvdz')

--------------------------------------------------------------------------

  //              Dimer HF             //
    Molecular point group: c1
  Charge       = 0
  Multiplicity = 1
  Basis Set: AUG-CC-PVDZ
    Blend: AUG-CC-PVDZ
  Basis Set: (AUG-CC-PVDZ AUX)
    Blend: AUG-CC-PVDZ-JKFIT
  @DF-RHF Final Energy:  -455.68817232580255
    Total Energy =                       -455.6881723258025545
  //            Monomer A HF           //
    Molecular point group: c1
  Multiplicity = 1
  Basis Set: AUG-CC-PVDZ
    Blend: AUG-CC-PVDZ
  Basis Set: (AUG-CC-PVDZ AUX)
    Blend: AUG-CC-PVDZ-JKFIT
  @DF-RHF Final Energy:  -227.84408589546223
    Total Energy =                       -227.8440858954622286
  //            Monomer B HF           //
    Molecular point group: c1

    Geometry (in Bohr), charge = 0, multiplicity = 1:

       Center              X                  Y                   Z               Mass
    ------------   -----------------  -----------------  -----------------  -----------------
      Gh(O)          -5.531022370000     2.939402900000     1.977626240000    15.994914619570
      Gh(O)          -2.407088860000     0.908177340000     0.049059090000    15.994914619570
      Gh(H)          -0.503048870000     1.375792050000     4.638809080000     1.007825032230
      Gh(H)           0.000000000000     4.251042850000     3.090722380000     1.007825032230
      Gh(H)          -2.389482150000     4.019167790000     5.401950410000     1.007825032230
      Gh(H)          -3.747714110000     0.471479300000    -1.215575120000     1.007825032230
      Gh(C)          -1.418597820000     2.985005000000     3.844051900000    12.000000000000
      Gh(C)          -3.322637810000     2.286288140000     1.912214130000    12.000000000000
         O           19.767305510000   -31.841856810000    -3.473383250000    15.994914619570
         O           16.643372000000   -33.873082380000    -5.401950410000    15.994914619570
         H           14.739332010000   -33.405467660000    -0.812200410000     1.007825032230
         H           14.236283140000   -30.530216860000    -2.360287110000     1.007825032230
         H           16.625765290000   -30.762091930000    -0.049059090000     1.007825032230
         H           17.983997250000   -34.309780420000    -6.666584610000     1.007825032230
         C           15.654880960000   -31.796254720000    -1.606957600000    12.000000000000
         C           17.558920950000   -32.494971580000    -3.538795360000    12.000000000000

  Charge       = 0
  Multiplicity = 1
  Basis Set: AUG-CC-PVDZ
    Blend: AUG-CC-PVDZ
  Basis Set: (AUG-CC-PVDZ AUX)
    Blend: AUG-CC-PVDZ-JKFIT

    Orbital Energies [Eh]
    ---------------------

    Doubly Occupied:

       1A    -20.629476     2A    -20.552804     3A    -11.396108
       4A    -11.250979     5A     -1.475853     6A     -1.357486
       7A     -1.032999     8A     -0.837930     9A     -0.703065
      10A     -0.688465    11A     -0.657749    12A     -0.576538
      13A     -0.569697    14A     -0.561403    15A     -0.475343
      16A     -0.452434

  @DF-RHF Final Energy:  -227.84408589460588

   => Energetics <=

    Nuclear Repulsion Energy =            121.7484301511684350
    One-Electron Energy =                -552.7483713141950830
    Two-Electron Energy =                 203.1558552684207370
    Total Energy =                       -227.8440858946058825

  Dipole Moment: [D]
     X:    -2.1048      Y:    -0.7191      Z:    -0.2116     Total:     2.2342

    SAPT Results
  --------------------------------------------------------------------------------------------------------
    Electrostatics                 -0.00050998 [mEh]      -0.00032002 [kcal/mol]      -0.00133896 [kJ/mol]
      Elst10,r                     -0.00050998 [mEh]      -0.00032002 [kcal/mol]      -0.00133896 [kJ/mol]

    Exchange                       -0.00000000 [mEh]      -0.00000000 [kcal/mol]      -0.00000000 [kJ/mol]
      Exch10                       -0.00000000 [mEh]      -0.00000000 [kcal/mol]      -0.00000000 [kJ/mol]
      Exch10(S^2)                  -0.00000000 [mEh]      -0.00000000 [kcal/mol]      -0.00000000 [kJ/mol]

    Induction                      -0.00002575 [mEh]      -0.00001616 [kcal/mol]      -0.00006761 [kJ/mol]
      Ind20,r                      -0.00000703 [mEh]      -0.00000441 [kcal/mol]      -0.00001847 [kJ/mol]
      Exch-Ind20,r                  0.00000000 [mEh]       0.00000000 [kcal/mol]       0.00000000 [kJ/mol]
      delta HF,r (2)               -0.00001872 [mEh]      -0.00001175 [kcal/mol]      -0.00004914 [kJ/mol]

    Dispersion                     -0.00012998 [mEh]      -0.00008156 [kcal/mol]      -0.00034126 [kJ/mol]
      Disp20                       -0.00012998 [mEh]      -0.00008156 [kcal/mol]      -0.00034126 [kJ/mol]
      Exch-Disp20                   0.00000000 [mEh]       0.00000000 [kcal/mol]       0.00000000 [kJ/mol]
      Disp20 (SS)                  -0.00006499 [mEh]      -0.00004078 [kcal/mol]      -0.00017063 [kJ/mol]
      Disp20 (OS)                  -0.00006499 [mEh]      -0.00004078 [kcal/mol]      -0.00017063 [kJ/mol]
      Exch-Disp20 (SS)              0.00000000 [mEh]       0.00000000 [kcal/mol]       0.00000000 [kJ/mol]
      Exch-Disp20 (OS)              0.00000000 [mEh]       0.00000000 [kcal/mol]       0.00000000 [kJ/mol]

  Total HF                         -0.00053573 [mEh]      -0.00033618 [kcal/mol]      -0.00140657 [kJ/mol]
  Total SAPT0                      -0.00066571 [mEh]      -0.00041774 [kcal/mol]      -0.00174783 [kJ/mol]

  Special recipe for scaled SAPT0 (see Manual):
    Electrostatics sSAPT0          -0.00050998 [mEh]      -0.00032002 [kcal/mol]      -0.00133896 [kJ/mol]
    Exchange sSAPT0                -0.00000000 [mEh]      -0.00000000 [kcal/mol]      -0.00000000 [kJ/mol]
    Induction sSAPT0               -0.00002575 [mEh]      -0.00001616 [kcal/mol]      -0.00006761 [kJ/mol]
    Dispersion sSAPT0              -0.00012998 [mEh]      -0.00008156 [kcal/mol]      -0.00034126 [kJ/mol]
  Total sSAPT0                     -0.00066571 [mEh]      -0.00041774 [kcal/mol]      -0.00174783 [kJ/mol]
  --------------------------------------------------------------------------------------------------------

*** Psi4 exiting successfully. Buy a developer a beer!
