                               Psi4 1.4rc3

  ==> Input File <==

--------------------------------------------------------------------------
# PSI4 file produced by CrystaLattE

# Generated from:               acetic_acid.xyz
# Psithon input for N-mer:      2mer-0+323
# Number of atoms per monomer:  [8, 8]
# Number of replicas:           2
# COM priority:                 1.737482810536e-05
# Minimum COM separations:      20.431
# Separation priority:          2.995002829156e-05
# Minimum monomer separations:  17.040
# Cutoff priority:              9.301000105369e-07
# Nuclear repulsion energy:     270.15532707821706

memory 7 GB

molecule Dimer_0_323 {
  O           -5.53102237       2.93940290       1.97762624
  O           -2.40708886       0.90817734       0.04905909
  H           -0.50304887       1.37579205       4.63880908
  H            0.00000000       4.25104285       3.09072238
  H           -2.38948215       4.01916779       5.40195041
  H           -3.74771411       0.47147930      -1.21557512
  C           -1.41859782       2.98500500       3.84405190
  C           -3.32263781       2.28628814       1.91221413
--
  O           32.34352736      12.67351812     -14.37540224
  O           29.21959385      14.70474369     -16.30396940
  H           27.31555386      14.23712898     -11.71421941
  H           26.81250499      11.36187817     -13.26230610
  H           29.20198714      11.59375324     -10.95107808
  H           30.56021910      15.14144173     -17.56860360
  C           28.23110281      12.62791603     -12.50897659
  C           30.13514280      13.32663289     -14.44081435
units = au
no_com
no_reorient
}

set {
  e_convergence 10
  d_convergence 10
  scf_type df
  mp2_type df
  cc_type df
  freeze_core true
}

energy('sapt0/aug-cc-pvdz')

--------------------------------------------------------------------------

  //              Dimer HF             //
    Molecular point group: c1
  Charge       = 0
  Multiplicity = 1
  Basis Set: AUG-CC-PVDZ
    Blend: AUG-CC-PVDZ
  Basis Set: (AUG-CC-PVDZ AUX)
    Blend: AUG-CC-PVDZ-JKFIT
  @DF-RHF Final Energy:  -455.68816241651075
    Total Energy =                       -455.6881624165107496
  //            Monomer A HF           //
    Molecular point group: c1
  Multiplicity = 1
  Basis Set: AUG-CC-PVDZ
    Blend: AUG-CC-PVDZ
  Basis Set: (AUG-CC-PVDZ AUX)
    Blend: AUG-CC-PVDZ-JKFIT
  @DF-RHF Final Energy:  -227.84408589476953
    Total Energy =                       -227.8440858947695347
  //            Monomer B HF           //
    Molecular point group: c1

    Geometry (in Bohr), charge = 0, multiplicity = 1:

       Center              X                  Y                   Z               Mass
    ------------   -----------------  -----------------  -----------------  -----------------
      Gh(O)          -5.531022370000     2.939402900000     1.977626240000    15.994914619570
      Gh(O)          -2.407088860000     0.908177340000     0.049059090000    15.994914619570
      Gh(H)          -0.503048870000     1.375792050000     4.638809080000     1.007825032230
      Gh(H)           0.000000000000     4.251042850000     3.090722380000     1.007825032230
      Gh(H)          -2.389482150000     4.019167790000     5.401950410000     1.007825032230
      Gh(H)          -3.747714110000     0.471479300000    -1.215575120000     1.007825032230
      Gh(C)          -1.418597820000     2.985005000000     3.844051900000    12.000000000000
      Gh(C)          -3.322637810000     2.286288140000     1.912214130000    12.000000000000
         O           32.343527360000    12.673518120000   -14.375402240000    15.994914619570
         O           29.219593850000    14.704743690000   -16.303969400000    15.994914619570
         H           27.315553860000    14.237128980000   -11.714219410000     1.007825032230
         H           26.812504990000    11.361878170000   -13.262306100000     1.007825032230
         H           29.201987140000    11.593753240000   -10.951078080000     1.007825032230
         H           30.560219100000    15.141441730000   -17.568603600000     1.007825032230
         C           28.231102810000    12.627916030000   -12.508976590000    12.000000000000
         C           30.135142800000    13.326632890000   -14.440814350000    12.000000000000

  Charge       = 0
  Multiplicity = 1
  Basis Set: AUG-CC-PVDZ
    Blend: AUG-CC-PVDZ
  Basis Set: (AUG-CC-PVDZ AUX)
    Blend: AUG-CC-PVDZ-JKFIT

    Orbital Energies [Eh]
    ---------------------

    Doubly Occupied:

       1A    -20.629476     2A    -20.552804     3A    -11.396108
       4A    -11.250979     5A     -1.475853     6A     -1.357486
       7A     -1.032999     8A     -0.837930     9A     -0.703065
      10A     -0.688465    11A     -0.657749    12A     -0.576538
      13A     -0.569697    14A     -0.561403    15A     -0.475343
      16A     -0.452434

  @DF-RHF Final Energy:  -227.84408589404134

   => Energetics <=

    Nuclear Repulsion Energy =            121.7484301494783807
    One-Electron Energy =                -552.7483713098162070
    Two-Electron Energy =                 203.1558552662964701
    Total Energy =                       -227.8440858940413420

  Dipole Moment: [D]
     X:    -2.1048      Y:     0.7191      Z:    -0.2116     Total:     2.2342

    SAPT Results
  --------------------------------------------------------------------------------------------------------
    Electrostatics                  0.00941344 [mEh]       0.00590702 [kcal/mol]       0.02471498 [kJ/mol]
      Elst10,r                      0.00941344 [mEh]       0.00590702 [kcal/mol]       0.02471498 [kJ/mol]

    Exchange                        0.00000000 [mEh]       0.00000000 [kcal/mol]       0.00000000 [kJ/mol]
      Exch10                        0.00000000 [mEh]       0.00000000 [kcal/mol]       0.00000000 [kJ/mol]
      Exch10(S^2)                   0.00000000 [mEh]       0.00000000 [kcal/mol]       0.00000000 [kJ/mol]

    Induction                      -0.00004114 [mEh]      -0.00002582 [kcal/mol]      -0.00010801 [kJ/mol]
      Ind20,r                      -0.00001617 [mEh]      -0.00001015 [kcal/mol]      -0.00004246 [kJ/mol]
      Exch-Ind20,r                  0.00000000 [mEh]       0.00000000 [kcal/mol]       0.00000000 [kJ/mol]
      delta HF,r (2)               -0.00002497 [mEh]      -0.00001567 [kcal/mol]      -0.00006555 [kJ/mol]

    Dispersion                     -0.00020504 [mEh]      -0.00012866 [kcal/mol]      -0.00053832 [kJ/mol]
      Disp20                       -0.00020504 [mEh]      -0.00012866 [kcal/mol]      -0.00053832 [kJ/mol]
      Exch-Disp20                   0.00000000 [mEh]       0.00000000 [kcal/mol]       0.00000000 [kJ/mol]
      Disp20 (SS)                  -0.00010252 [mEh]      -0.00006433 [kcal/mol]      -0.00026916 [kJ/mol]
      Disp20 (OS)                  -0.00010252 [mEh]      -0.00006433 [kcal/mol]      -0.00026916 [kJ/mol]
      Exch-Disp20 (SS)              0.00000000 [mEh]       0.00000000 [kcal/mol]       0.00000000 [kJ/mol]
      Exch-Disp20 (OS)              0.00000000 [mEh]       0.00000000 [kcal/mol]       0.00000000 [kJ/mol]

  Total HF                          0.00937230 [mEh]       0.00588121 [kcal/mol]       0.02460697 [kJ/mol]
  Total SAPT0                       0.00916726 [mEh]       0.00575255 [kcal/mol]       0.02406865 [kJ/mol]

  Special recipe for scaled SAPT0 (see Manual):
    Electrostatics sSAPT0           0.00941344 [mEh]       0.00590702 [kcal/mol]       0.02471498 [kJ/mol]
    Exchange sSAPT0                 0.00000000 [mEh]       0.00000000 [kcal/mol]       0.00000000 [kJ/mol]
    Induction sSAPT0               -0.00004114 [mEh]      -0.00002582 [kcal/mol]      -0.00010801 [kJ/mol]
    Dispersion sSAPT0              -0.00020504 [mEh]      -0.00012866 [kcal/mol]      -0.00053832 [kJ/mol]
  Total sSAPT0                      0.00916726 [mEh]       0.00575255 [kcal/mol]       0.02406865 [kJ/mol]
  --------------------------------------------------------------------------------------------------------

*** Psi4 exiting successfully. Buy a developer a beer!
