                               Psi4 1.4rc3

  ==> Input File <==

--------------------------------------------------------------------------
# PSI4 file produced by CrystaLattE

# Generated from:               acetic_acid.xyz
# Psithon input for N-mer:      2mer-0+360
# Number of atoms per monomer:  [8, 8]
# Number of replicas:           2
# COM priority:                 1.862878735301e-05
# Minimum COM separations:      19.962
# Separation priority:          3.065426173778e-05
# Minimum monomer separations:  16.908
# Cutoff priority:              9.593737140014e-07
# Nuclear repulsion energy:     270.65285424139114

memory 7 GB

molecule Dimer_0_360 {
  O           -5.53102237       2.93940290       1.97762624
  O           -2.40708886       0.90817734       0.04905909
  H           -0.50304887       1.37579205       4.63880908
  H            0.00000000       4.25104285       3.09072238
  H           -2.38948215       4.01916779       5.40195041
  H           -3.74771411       0.47147930      -1.21557512
  C           -1.41859782       2.98500500       3.84405190
  C           -3.32263781       2.28628814       1.91221413
--
  O           19.76730551     -24.11268799      18.33065473
  O           16.64337200     -26.14391355      16.40208757
  H           14.73933201     -25.67629884      20.99183757
  H           14.23628314     -22.80104804      19.44375087
  H           16.62576529     -23.03292310      21.75497890
  H           17.98399725     -26.58061159      15.13745337
  C           15.65488096     -24.06708589      20.19708038
  C           17.55892095     -24.76580275      18.26524262
units = au
no_com
no_reorient
}

set {
  e_convergence 10
  d_convergence 10
  scf_type df
  mp2_type df
  cc_type df
  freeze_core true
}

energy('sapt0/aug-cc-pvdz')

--------------------------------------------------------------------------

  //              Dimer HF             //
    Molecular point group: c1
  Charge       = 0
  Multiplicity = 1
  Basis Set: AUG-CC-PVDZ
    Blend: AUG-CC-PVDZ
  Basis Set: (AUG-CC-PVDZ AUX)
    Blend: AUG-CC-PVDZ-JKFIT
  @DF-RHF Final Energy:  -455.68817230395416
    Total Energy =                       -455.6881723039541612
  //            Monomer A HF           //
    Molecular point group: c1
  Multiplicity = 1
  Basis Set: AUG-CC-PVDZ
    Blend: AUG-CC-PVDZ
  Basis Set: (AUG-CC-PVDZ AUX)
    Blend: AUG-CC-PVDZ-JKFIT
  @DF-RHF Final Energy:  -227.84408589427608
    Total Energy =                       -227.8440858942760769
  //            Monomer B HF           //
    Molecular point group: c1

    Geometry (in Bohr), charge = 0, multiplicity = 1:

       Center              X                  Y                   Z               Mass
    ------------   -----------------  -----------------  -----------------  -----------------
      Gh(O)          -5.531022370000     2.939402900000     1.977626240000    15.994914619570
      Gh(O)          -2.407088860000     0.908177340000     0.049059090000    15.994914619570
      Gh(H)          -0.503048870000     1.375792050000     4.638809080000     1.007825032230
      Gh(H)           0.000000000000     4.251042850000     3.090722380000     1.007825032230
      Gh(H)          -2.389482150000     4.019167790000     5.401950410000     1.007825032230
      Gh(H)          -3.747714110000     0.471479300000    -1.215575120000     1.007825032230
      Gh(C)          -1.418597820000     2.985005000000     3.844051900000    12.000000000000
      Gh(C)          -3.322637810000     2.286288140000     1.912214130000    12.000000000000
         O           19.767305510000   -24.112687990000    18.330654730000    15.994914619570
         O           16.643372000000   -26.143913550000    16.402087570000    15.994914619570
         H           14.739332010000   -25.676298840000    20.991837570000     1.007825032230
         H           14.236283140000   -22.801048040000    19.443750870000     1.007825032230
         H           16.625765290000   -23.032923100000    21.754978900000     1.007825032230
         H           17.983997250000   -26.580611590000    15.137453370000     1.007825032230
         C           15.654880960000   -24.067085890000    20.197080380000    12.000000000000
         C           17.558920950000   -24.765802750000    18.265242620000    12.000000000000

  Charge       = 0
  Multiplicity = 1
  Basis Set: AUG-CC-PVDZ
    Blend: AUG-CC-PVDZ
  Basis Set: (AUG-CC-PVDZ AUX)
    Blend: AUG-CC-PVDZ-JKFIT

    Orbital Energies [Eh]
    ---------------------

    Doubly Occupied:

       1A    -20.629476     2A    -20.552804     3A    -11.396108
       4A    -11.250979     5A     -1.475853     6A     -1.357486
       7A     -1.032999     8A     -0.837930     9A     -0.703065
      10A     -0.688465    11A     -0.657749    12A     -0.576538
      13A     -0.569697    14A     -0.561403    15A     -0.475343
      16A     -0.452434

  @DF-RHF Final Energy:  -227.84408589437970

   => Energetics <=

    Nuclear Repulsion Energy =            121.7484301769359973
    One-Electron Energy =                -552.7483713631218052
    Two-Electron Energy =                 203.1558552918061196
    Total Energy =                       -227.8440858943797025

  Dipole Moment: [D]
     X:    -2.1048      Y:    -0.7191      Z:    -0.2116     Total:     2.2342

    SAPT Results
  --------------------------------------------------------------------------------------------------------
    Electrostatics                 -0.00047947 [mEh]      -0.00030087 [kcal/mol]      -0.00125884 [kJ/mol]
      Elst10,r                     -0.00047947 [mEh]      -0.00030087 [kcal/mol]      -0.00125884 [kJ/mol]

    Exchange                       -0.00000000 [mEh]      -0.00000000 [kcal/mol]      -0.00000000 [kJ/mol]
      Exch10                       -0.00000000 [mEh]      -0.00000000 [kcal/mol]      -0.00000000 [kJ/mol]
      Exch10(S^2)                  -0.00000000 [mEh]      -0.00000000 [kcal/mol]      -0.00000000 [kJ/mol]

    Induction                      -0.00003583 [mEh]      -0.00002248 [kcal/mol]      -0.00009407 [kJ/mol]
      Ind20,r                      -0.00000986 [mEh]      -0.00000618 [kcal/mol]      -0.00002588 [kJ/mol]
      Exch-Ind20,r                  0.00000000 [mEh]       0.00000000 [kcal/mol]       0.00000000 [kJ/mol]
      delta HF,r (2)               -0.00002598 [mEh]      -0.00001630 [kcal/mol]      -0.00006820 [kJ/mol]

    Dispersion                     -0.00020015 [mEh]      -0.00012560 [kcal/mol]      -0.00052550 [kJ/mol]
      Disp20                       -0.00020015 [mEh]      -0.00012560 [kcal/mol]      -0.00052550 [kJ/mol]
      Exch-Disp20                   0.00000000 [mEh]       0.00000000 [kcal/mol]       0.00000000 [kJ/mol]
      Disp20 (SS)                  -0.00010008 [mEh]      -0.00006280 [kcal/mol]      -0.00026275 [kJ/mol]
      Disp20 (OS)                  -0.00010008 [mEh]      -0.00006280 [kcal/mol]      -0.00026275 [kJ/mol]
      Exch-Disp20 (SS)              0.00000000 [mEh]       0.00000000 [kcal/mol]       0.00000000 [kJ/mol]
      Exch-Disp20 (OS)              0.00000000 [mEh]       0.00000000 [kcal/mol]       0.00000000 [kJ/mol]

  Total HF                         -0.00051530 [mEh]      -0.00032335 [kcal/mol]      -0.00135292 [kJ/mol]
  Total SAPT0                      -0.00071545 [mEh]      -0.00044895 [kcal/mol]      -0.00187841 [kJ/mol]

  Special recipe for scaled SAPT0 (see Manual):
    Electrostatics sSAPT0          -0.00047947 [mEh]      -0.00030087 [kcal/mol]      -0.00125884 [kJ/mol]
    Exchange sSAPT0                -0.00000000 [mEh]      -0.00000000 [kcal/mol]      -0.00000000 [kJ/mol]
    Induction sSAPT0               -0.00003583 [mEh]      -0.00002248 [kcal/mol]      -0.00009407 [kJ/mol]
    Dispersion sSAPT0              -0.00020015 [mEh]      -0.00012560 [kcal/mol]      -0.00052550 [kJ/mol]
  Total sSAPT0                     -0.00071545 [mEh]      -0.00044895 [kcal/mol]      -0.00187841 [kJ/mol]
  --------------------------------------------------------------------------------------------------------

*** Psi4 exiting successfully. Buy a developer a beer!
