                               Psi4 1.4rc3

  ==> Input File <==

--------------------------------------------------------------------------
# PSI4 file produced by CrystaLattE

# Generated from:               acetic_acid.xyz
# Psithon input for N-mer:      2mer-0+364
# Number of atoms per monomer:  [8, 8]
# Number of replicas:           2
# COM priority:                 2.022730914797e-05
# Minimum COM separations:      19.422
# Separation priority:          3.699219743991e-05
# Minimum monomer separations:  15.882
# Cutoff priority:              1.232575432477e-06
# Nuclear repulsion energy:     271.48160361200985

memory 7 GB

molecule Dimer_0_364 {
  O           -5.53102237       2.93940290       1.97762624
  O           -2.40708886       0.90817734       0.04905909
  H           -0.50304887       1.37579205       4.63880908
  H            0.00000000       4.25104285       3.09072238
  H           -2.38948215       4.01916779       5.40195041
  H           -3.74771411       0.47147930      -1.21557512
  C           -1.41859782       2.98500500       3.84405190
  C           -3.32263781       2.28628814       1.91221413
--
  O          -30.68346607     -12.51893475     -19.82641174
  O          -27.55953256     -14.55016031     -21.75497890
  H          -25.65549258     -14.08254560     -17.16522890
  H          -25.15244370     -11.20729480     -18.71331560
  H          -27.54192585     -11.43916986     -16.40208757
  H          -28.90015781     -14.98685835     -23.01961310
  C          -26.57104153     -12.47333265     -17.95998608
  C          -28.47508152     -13.17204951     -19.89182385
units = au
no_com
no_reorient
}

set {
  e_convergence 10
  d_convergence 10
  scf_type df
  mp2_type df
  cc_type df
  freeze_core true
}

energy('sapt0/aug-cc-pvdz')

--------------------------------------------------------------------------

  //              Dimer HF             //
    Molecular point group: c1
  Charge       = 0
  Multiplicity = 1
  Basis Set: AUG-CC-PVDZ
    Blend: AUG-CC-PVDZ
  Basis Set: (AUG-CC-PVDZ AUX)
    Blend: AUG-CC-PVDZ-JKFIT
  @DF-RHF Final Energy:  -455.68816338577460
    Total Energy =                       -455.6881633857746010
  //            Monomer A HF           //
    Molecular point group: c1
  Multiplicity = 1
  Basis Set: AUG-CC-PVDZ
    Blend: AUG-CC-PVDZ
  Basis Set: (AUG-CC-PVDZ AUX)
    Blend: AUG-CC-PVDZ-JKFIT
  @DF-RHF Final Energy:  -227.84408589702340
    Total Energy =                       -227.8440858970234046
  //            Monomer B HF           //
    Molecular point group: c1

    Geometry (in Bohr), charge = 0, multiplicity = 1:

       Center              X                  Y                   Z               Mass
    ------------   -----------------  -----------------  -----------------  -----------------
      Gh(O)          -5.531022370000     2.939402900000     1.977626240000    15.994914619570
      Gh(O)          -2.407088860000     0.908177340000     0.049059090000    15.994914619570
      Gh(H)          -0.503048870000     1.375792050000     4.638809080000     1.007825032230
      Gh(H)           0.000000000000     4.251042850000     3.090722380000     1.007825032230
      Gh(H)          -2.389482150000     4.019167790000     5.401950410000     1.007825032230
      Gh(H)          -3.747714110000     0.471479300000    -1.215575120000     1.007825032230
      Gh(C)          -1.418597820000     2.985005000000     3.844051900000    12.000000000000
      Gh(C)          -3.322637810000     2.286288140000     1.912214130000    12.000000000000
         O          -30.683466070000   -12.518934750000   -19.826411740000    15.994914619570
         O          -27.559532560000   -14.550160310000   -21.754978900000    15.994914619570
         H          -25.655492580000   -14.082545600000   -17.165228900000     1.007825032230
         H          -25.152443700000   -11.207294800000   -18.713315600000     1.007825032230
         H          -27.541925850000   -11.439169860000   -16.402087570000     1.007825032230
         H          -28.900157810000   -14.986858350000   -23.019613100000     1.007825032230
         C          -26.571041530000   -12.473332650000   -17.959986080000    12.000000000000
         C          -28.475081520000   -13.172049510000   -19.891823850000    12.000000000000

  Charge       = 0
  Multiplicity = 1
  Basis Set: AUG-CC-PVDZ
    Blend: AUG-CC-PVDZ
  Basis Set: (AUG-CC-PVDZ AUX)
    Blend: AUG-CC-PVDZ-JKFIT

    Orbital Energies [Eh]
    ---------------------

    Doubly Occupied:

       1A    -20.629476     2A    -20.552804     3A    -11.396108
       4A    -11.250979     5A     -1.475853     6A     -1.357486
       7A     -1.032999     8A     -0.837930     9A     -0.703065
      10A     -0.688465    11A     -0.657749    12A     -0.576538
      13A     -0.569697    14A     -0.561403    15A     -0.475343
      16A     -0.452434

  @DF-RHF Final Energy:  -227.84408589499819

   => Energetics <=

    Nuclear Repulsion Energy =            121.7484302062386945
    One-Electron Energy =                -552.7483714206418881
    Two-Electron Energy =                 203.1558553194049921
    Total Energy =                       -227.8440858949981873

  Dipole Moment: [D]
     X:     2.1048      Y:    -0.7191      Z:    -0.2116     Total:     2.2342

    SAPT Results
  --------------------------------------------------------------------------------------------------------
    Electrostatics                  0.00844124 [mEh]       0.00529696 [kcal/mol]       0.02216247 [kJ/mol]
      Elst10,r                      0.00844124 [mEh]       0.00529696 [kcal/mol]       0.02216247 [kJ/mol]

    Exchange                        0.00000000 [mEh]       0.00000000 [kcal/mol]       0.00000000 [kJ/mol]
      Exch10                        0.00000000 [mEh]       0.00000000 [kcal/mol]       0.00000000 [kJ/mol]
      Exch10(S^2)                   0.00000000 [mEh]       0.00000000 [kcal/mol]       0.00000000 [kJ/mol]

    Induction                      -0.00003499 [mEh]      -0.00002196 [kcal/mol]      -0.00009187 [kJ/mol]
      Ind20,r                      -0.00002111 [mEh]      -0.00001325 [kcal/mol]      -0.00005542 [kJ/mol]
      Exch-Ind20,r                  0.00000000 [mEh]       0.00000000 [kcal/mol]       0.00000000 [kJ/mol]
      delta HF,r (2)               -0.00001388 [mEh]      -0.00000871 [kcal/mol]      -0.00003645 [kJ/mol]

    Dispersion                     -0.00026379 [mEh]      -0.00016553 [kcal/mol]      -0.00069259 [kJ/mol]
      Disp20                       -0.00026379 [mEh]      -0.00016553 [kcal/mol]      -0.00069259 [kJ/mol]
      Exch-Disp20                   0.00000000 [mEh]       0.00000000 [kcal/mol]       0.00000000 [kJ/mol]
      Disp20 (SS)                  -0.00013190 [mEh]      -0.00008277 [kcal/mol]      -0.00034629 [kJ/mol]
      Disp20 (OS)                  -0.00013190 [mEh]      -0.00008277 [kcal/mol]      -0.00034629 [kJ/mol]
      Exch-Disp20 (SS)              0.00000000 [mEh]       0.00000000 [kcal/mol]       0.00000000 [kJ/mol]
      Exch-Disp20 (OS)              0.00000000 [mEh]       0.00000000 [kcal/mol]       0.00000000 [kJ/mol]

  Total HF                          0.00840625 [mEh]       0.00527500 [kcal/mol]       0.02207060 [kJ/mol]
  Total SAPT0                       0.00814245 [mEh]       0.00510947 [kcal/mol]       0.02137801 [kJ/mol]

  Special recipe for scaled SAPT0 (see Manual):
    Electrostatics sSAPT0           0.00844124 [mEh]       0.00529696 [kcal/mol]       0.02216247 [kJ/mol]
    Exchange sSAPT0                 0.00000000 [mEh]       0.00000000 [kcal/mol]       0.00000000 [kJ/mol]
    Induction sSAPT0               -0.00003499 [mEh]      -0.00002196 [kcal/mol]      -0.00009187 [kJ/mol]
    Dispersion sSAPT0              -0.00026379 [mEh]      -0.00016553 [kcal/mol]      -0.00069259 [kJ/mol]
  Total sSAPT0                      0.00814245 [mEh]       0.00510947 [kcal/mol]       0.02137801 [kJ/mol]
  --------------------------------------------------------------------------------------------------------

*** Psi4 exiting successfully. Buy a developer a beer!
