                               Psi4 1.4rc3

  ==> Input File <==

--------------------------------------------------------------------------
# PSI4 file produced by CrystaLattE

# Generated from:               acetic_acid.xyz
# Psithon input for N-mer:      2mer-0+179
# Number of atoms per monomer:  [8, 8]
# Number of replicas:           2
# COM priority:                 4.569530381769e-05
# Minimum COM separations:      14.802
# Separation priority:          5.623555953298e-05
# Minimum monomer separations:  13.812
# Cutoff priority:              2.154507585767e-06
# Nuclear repulsion energy:     279.86681967500806

memory 7 GB

molecule Dimer_0_179 {
  O           -5.53102237       2.93940290       1.97762624
  O           -2.40708886       0.90817734       0.04905909
  H           -0.50304887       1.37579205       4.63880908
  H            0.00000000       4.25104285       3.09072238
  H           -2.38948215       4.01916779       5.40195041
  H           -3.74771411       0.47147930      -1.21557512
  C           -1.41859782       2.98500500       3.84405190
  C           -3.32263781       2.28628814       1.91221413
--
  O           -5.38513820     -24.11268799       7.42863574
  O           -8.50907170     -26.14391355       5.50006858
  H          -10.41311169     -25.67629884      10.08981858
  H          -10.91616057     -22.80104804       8.54173188
  H           -8.52667842     -23.03292310      10.85295990
  H           -7.16844646     -26.58061159       4.23543438
  C           -9.49756274     -24.06708589       9.29506139
  C           -7.59352275     -24.76580275       7.36322363
units = au
no_com
no_reorient
}

set {
  e_convergence 10
  d_convergence 10
  scf_type df
  mp2_type df
  cc_type df
  freeze_core true
}

energy('sapt0/aug-cc-pvdz')

--------------------------------------------------------------------------

  //              Dimer HF             //
    Molecular point group: c1
  Charge       = 0
  Multiplicity = 1
  Basis Set: AUG-CC-PVDZ
    Blend: AUG-CC-PVDZ
  Basis Set: (AUG-CC-PVDZ AUX)
    Blend: AUG-CC-PVDZ-JKFIT
  @DF-RHF Final Energy:  -455.68820896994521
    Total Energy =                       -455.6882089699452081
  //            Monomer A HF           //
    Molecular point group: c1
  Multiplicity = 1
  Basis Set: AUG-CC-PVDZ
    Blend: AUG-CC-PVDZ
  Basis Set: (AUG-CC-PVDZ AUX)
    Blend: AUG-CC-PVDZ-JKFIT
  @DF-RHF Final Energy:  -227.84408589331900
    Total Energy =                       -227.8440858933190043
  //            Monomer B HF           //
    Molecular point group: c1

    Geometry (in Bohr), charge = 0, multiplicity = 1:

       Center              X                  Y                   Z               Mass
    ------------   -----------------  -----------------  -----------------  -----------------
      Gh(O)          -5.531022370000     2.939402900000     1.977626240000    15.994914619570
      Gh(O)          -2.407088860000     0.908177340000     0.049059090000    15.994914619570
      Gh(H)          -0.503048870000     1.375792050000     4.638809080000     1.007825032230
      Gh(H)           0.000000000000     4.251042850000     3.090722380000     1.007825032230
      Gh(H)          -2.389482150000     4.019167790000     5.401950410000     1.007825032230
      Gh(H)          -3.747714110000     0.471479300000    -1.215575120000     1.007825032230
      Gh(C)          -1.418597820000     2.985005000000     3.844051900000    12.000000000000
      Gh(C)          -3.322637810000     2.286288140000     1.912214130000    12.000000000000
         O           -5.385138200000   -24.112687990000     7.428635740000    15.994914619570
         O           -8.509071700000   -26.143913550000     5.500068580000    15.994914619570
         H          -10.413111690000   -25.676298840000    10.089818580000     1.007825032230
         H          -10.916160570000   -22.801048040000     8.541731880000     1.007825032230
         H           -8.526678420000   -23.032923100000    10.852959900000     1.007825032230
         H           -7.168446460000   -26.580611590000     4.235434380000     1.007825032230
         C           -9.497562740000   -24.067085890000     9.295061390000    12.000000000000
         C           -7.593522750000   -24.765802750000     7.363223630000    12.000000000000

  Charge       = 0
  Multiplicity = 1
  Basis Set: AUG-CC-PVDZ
    Blend: AUG-CC-PVDZ
  Basis Set: (AUG-CC-PVDZ AUX)
    Blend: AUG-CC-PVDZ-JKFIT

    Orbital Energies [Eh]
    ---------------------

    Doubly Occupied:

       1A    -20.629476     2A    -20.552804     3A    -11.396108
       4A    -11.250979     5A     -1.475853     6A     -1.357486
       7A     -1.032999     8A     -0.837930     9A     -0.703065
      10A     -0.688465    11A     -0.657749    12A     -0.576538
      13A     -0.569697    14A     -0.561403    15A     -0.475343
      16A     -0.452434

  @DF-RHF Final Energy:  -227.84408589420664

   => Energetics <=

    Nuclear Repulsion Energy =            121.7484303409664506
    One-Electron Energy =                -552.7483716722692861
    Two-Electron Energy =                 203.1558554370961645
    Total Energy =                       -227.8440858942066427

  Dipole Moment: [D]
     X:    -2.1048      Y:    -0.7191      Z:    -0.2116     Total:     2.2342

    SAPT Results
  --------------------------------------------------------------------------------------------------------
    Electrostatics                 -0.03707528 [mEh]      -0.02326509 [kcal/mol]      -0.09734113 [kJ/mol]
      Elst10,r                     -0.03707528 [mEh]      -0.02326509 [kcal/mol]      -0.09734113 [kJ/mol]

    Exchange                        0.00000000 [mEh]       0.00000000 [kcal/mol]       0.00000000 [kJ/mol]
      Exch10                        0.00000000 [mEh]       0.00000000 [kcal/mol]       0.00000000 [kJ/mol]
      Exch10(S^2)                   0.00000000 [mEh]       0.00000000 [kcal/mol]       0.00000000 [kJ/mol]

    Induction                      -0.00010714 [mEh]      -0.00006723 [kcal/mol]      -0.00028129 [kJ/mol]
      Ind20,r                      -0.00008460 [mEh]      -0.00005309 [kcal/mol]      -0.00022212 [kJ/mol]
      Exch-Ind20,r                  0.00000000 [mEh]       0.00000000 [kcal/mol]       0.00000000 [kJ/mol]
      delta HF,r (2)               -0.00002254 [mEh]      -0.00001414 [kcal/mol]      -0.00005918 [kJ/mol]

    Dispersion                     -0.00104248 [mEh]      -0.00065416 [kcal/mol]      -0.00273702 [kJ/mol]
      Disp20                       -0.00104248 [mEh]      -0.00065416 [kcal/mol]      -0.00273702 [kJ/mol]
      Exch-Disp20                   0.00000000 [mEh]       0.00000000 [kcal/mol]       0.00000000 [kJ/mol]
      Disp20 (SS)                  -0.00052124 [mEh]      -0.00032708 [kcal/mol]      -0.00136851 [kJ/mol]
      Disp20 (OS)                  -0.00052124 [mEh]      -0.00032708 [kcal/mol]      -0.00136851 [kJ/mol]
      Exch-Disp20 (SS)              0.00000000 [mEh]       0.00000000 [kcal/mol]       0.00000000 [kJ/mol]
      Exch-Disp20 (OS)              0.00000000 [mEh]       0.00000000 [kcal/mol]       0.00000000 [kJ/mol]

  Total HF                         -0.03718242 [mEh]      -0.02333232 [kcal/mol]      -0.09762243 [kJ/mol]
  Total SAPT0                      -0.03822490 [mEh]      -0.02398648 [kcal/mol]      -0.10035945 [kJ/mol]

  Special recipe for scaled SAPT0 (see Manual):
    Electrostatics sSAPT0          -0.03707528 [mEh]      -0.02326509 [kcal/mol]      -0.09734113 [kJ/mol]
    Exchange sSAPT0                 0.00000000 [mEh]       0.00000000 [kcal/mol]       0.00000000 [kJ/mol]
    Induction sSAPT0               -0.00010714 [mEh]      -0.00006723 [kcal/mol]      -0.00028129 [kJ/mol]
    Dispersion sSAPT0              -0.00104248 [mEh]      -0.00065416 [kcal/mol]      -0.00273702 [kJ/mol]
  Total sSAPT0                     -0.03822490 [mEh]      -0.02398648 [kcal/mol]      -0.10035945 [kJ/mol]
  --------------------------------------------------------------------------------------------------------

*** Psi4 exiting successfully. Buy a developer a beer!
