                               Psi4 1.4rc3

  ==> Input File <==

--------------------------------------------------------------------------
# PSI4 file produced by CrystaLattE

# Generated from:               acetic_acid.xyz
# Psithon input for N-mer:      2mer-0+257
# Number of atoms per monomer:  [8, 8]
# Number of replicas:           2
# COM priority:                 2.524313570293e-05
# Minimum COM separations:      18.039
# Separation priority:          4.092313189049e-05
# Minimum monomer separations:  15.356
# Cutoff priority:              1.410236067454e-06
# Nuclear repulsion energy:     273.58626269278926

memory 7 GB

molecule Dimer_0_257 {
  O           -5.53102237       2.93940290       1.97762624
  O           -2.40708886       0.90817734       0.04905909
  H           -0.50304887       1.37579205       4.63880908
  H            0.00000000       4.25104285       3.09072238
  H           -2.38948215       4.01916779       5.40195041
  H           -3.74771411       0.47147930      -1.21557512
  C           -1.41859782       2.98500500       3.84405190
  C           -3.32263781       2.28628814       1.91221413
--
  O            7.19108365      20.40268695     -25.27742123
  O            4.06715015      22.43391252     -27.20598839
  H            2.16311016      21.96629780     -22.61623840
  H            1.66006128      19.09104700     -24.16432509
  H            4.04954344      19.32292206     -21.85309707
  H            5.40777540      22.87061056     -28.47062259
  C            3.07865911      20.35708485     -23.41099558
  C            4.98269910      21.05580172     -25.34283335
units = au
no_com
no_reorient
}

set {
  e_convergence 10
  d_convergence 10
  scf_type df
  mp2_type df
  cc_type df
  freeze_core true
}

energy('sapt0/aug-cc-pvdz')

--------------------------------------------------------------------------

  //              Dimer HF             //
    Molecular point group: c1
  Charge       = 0
  Multiplicity = 1
  Basis Set: AUG-CC-PVDZ
    Blend: AUG-CC-PVDZ
  Basis Set: (AUG-CC-PVDZ AUX)
    Blend: AUG-CC-PVDZ-JKFIT
  @DF-RHF Final Energy:  -455.68818883458545
    Total Energy =                       -455.6881888345854463
  //            Monomer A HF           //
    Molecular point group: c1
  Multiplicity = 1
  Basis Set: AUG-CC-PVDZ
    Blend: AUG-CC-PVDZ
  Basis Set: (AUG-CC-PVDZ AUX)
    Blend: AUG-CC-PVDZ-JKFIT
  @DF-RHF Final Energy:  -227.84408589446741
    Total Energy =                       -227.8440858944674119
  //            Monomer B HF           //
    Molecular point group: c1

    Geometry (in Bohr), charge = 0, multiplicity = 1:

       Center              X                  Y                   Z               Mass
    ------------   -----------------  -----------------  -----------------  -----------------
      Gh(O)          -5.531022370000     2.939402900000     1.977626240000    15.994914619570
      Gh(O)          -2.407088860000     0.908177340000     0.049059090000    15.994914619570
      Gh(H)          -0.503048870000     1.375792050000     4.638809080000     1.007825032230
      Gh(H)           0.000000000000     4.251042850000     3.090722380000     1.007825032230
      Gh(H)          -2.389482150000     4.019167790000     5.401950410000     1.007825032230
      Gh(H)          -3.747714110000     0.471479300000    -1.215575120000     1.007825032230
      Gh(C)          -1.418597820000     2.985005000000     3.844051900000    12.000000000000
      Gh(C)          -3.322637810000     2.286288140000     1.912214130000    12.000000000000
         O            7.191083650000    20.402686950000   -25.277421230000    15.994914619570
         O            4.067150150000    22.433912520000   -27.205988390000    15.994914619570
         H            2.163110160000    21.966297800000   -22.616238400000     1.007825032230
         H            1.660061280000    19.091047000000   -24.164325090000     1.007825032230
         H            4.049543440000    19.322922060000   -21.853097070000     1.007825032230
         H            5.407775400000    22.870610560000   -28.470622590000     1.007825032230
         C            3.078659110000    20.357084850000   -23.410995580000    12.000000000000
         C            4.982699100000    21.055801720000   -25.342833350000    12.000000000000

  Charge       = 0
  Multiplicity = 1
  Basis Set: AUG-CC-PVDZ
    Blend: AUG-CC-PVDZ
  Basis Set: (AUG-CC-PVDZ AUX)
    Blend: AUG-CC-PVDZ-JKFIT

    Orbital Energies [Eh]
    ---------------------

    Doubly Occupied:

       1A    -20.629476     2A    -20.552804     3A    -11.396108
       4A    -11.250979     5A     -1.475853     6A     -1.357486
       7A     -1.032999     8A     -0.837930     9A     -0.703065
      10A     -0.688465    11A     -0.657749    12A     -0.576538
      13A     -0.569697    14A     -0.561403    15A     -0.475343
      16A     -0.452434

  @DF-RHF Final Energy:  -227.84408589459701

   => Energetics <=

    Nuclear Repulsion Energy =            121.7484302794795923
    One-Electron Energy =                -552.7483715605394536
    Two-Electron Energy =                 203.1558553864628607
    Total Energy =                       -227.8440858945970149

  Dipole Moment: [D]
     X:    -2.1048      Y:     0.7191      Z:    -0.2116     Total:     2.2342

    SAPT Results
  --------------------------------------------------------------------------------------------------------
    Electrostatics                 -0.01700410 [mEh]      -0.01067024 [kcal/mol]      -0.04464427 [kJ/mol]
      Elst10,r                     -0.01700410 [mEh]      -0.01067024 [kcal/mol]      -0.04464427 [kJ/mol]

    Exchange                       -0.00000000 [mEh]      -0.00000000 [kcal/mol]      -0.00000000 [kJ/mol]
      Exch10                       -0.00000000 [mEh]      -0.00000000 [kcal/mol]      -0.00000000 [kJ/mol]
      Exch10(S^2)                  -0.00000000 [mEh]      -0.00000000 [kcal/mol]      -0.00000000 [kJ/mol]

    Induction                      -0.00004142 [mEh]      -0.00002599 [kcal/mol]      -0.00010874 [kJ/mol]
      Ind20,r                      -0.00001977 [mEh]      -0.00001240 [kcal/mol]      -0.00005189 [kJ/mol]
      Exch-Ind20,r                  0.00000000 [mEh]       0.00000000 [kcal/mol]       0.00000000 [kJ/mol]
      delta HF,r (2)               -0.00002165 [mEh]      -0.00001359 [kcal/mol]      -0.00005684 [kJ/mol]

    Dispersion                     -0.00038204 [mEh]      -0.00023973 [kcal/mol]      -0.00100304 [kJ/mol]
      Disp20                       -0.00038204 [mEh]      -0.00023973 [kcal/mol]      -0.00100304 [kJ/mol]
      Exch-Disp20                   0.00000000 [mEh]       0.00000000 [kcal/mol]       0.00000000 [kJ/mol]
      Disp20 (SS)                  -0.00019102 [mEh]      -0.00011987 [kcal/mol]      -0.00050152 [kJ/mol]
      Disp20 (OS)                  -0.00019102 [mEh]      -0.00011987 [kcal/mol]      -0.00050152 [kJ/mol]
      Exch-Disp20 (SS)              0.00000000 [mEh]       0.00000000 [kcal/mol]       0.00000000 [kJ/mol]
      Exch-Disp20 (OS)              0.00000000 [mEh]       0.00000000 [kcal/mol]       0.00000000 [kJ/mol]

  Total HF                         -0.01704552 [mEh]      -0.01069623 [kcal/mol]      -0.04475301 [kJ/mol]
  Total SAPT0                      -0.01742756 [mEh]      -0.01093596 [kcal/mol]      -0.04575605 [kJ/mol]

  Special recipe for scaled SAPT0 (see Manual):
    Electrostatics sSAPT0          -0.01700410 [mEh]      -0.01067024 [kcal/mol]      -0.04464427 [kJ/mol]
    Exchange sSAPT0                -0.00000000 [mEh]      -0.00000000 [kcal/mol]      -0.00000000 [kJ/mol]
    Induction sSAPT0               -0.00004142 [mEh]      -0.00002599 [kcal/mol]      -0.00010874 [kJ/mol]
    Dispersion sSAPT0              -0.00038204 [mEh]      -0.00023973 [kcal/mol]      -0.00100304 [kJ/mol]
  Total sSAPT0                     -0.01742756 [mEh]      -0.01093596 [kcal/mol]      -0.04575605 [kJ/mol]
  --------------------------------------------------------------------------------------------------------

*** Psi4 exiting successfully. Buy a developer a beer!
