                               Psi4 1.4rc3

  ==> Input File <==

--------------------------------------------------------------------------
# PSI4 file produced by CrystaLattE

# Generated from:               acetic_acid.xyz
# Psithon input for N-mer:      2mer-0+590
# Number of atoms per monomer:  [8, 8]
# Number of replicas:           2
# COM priority:                 1.504324189948e-05
# Minimum COM separations:      21.437
# Separation priority:          2.136863648898e-05
# Minimum monomer separations:  19.070
# Cutoff priority:              5.929741322268e-07
# Nuclear repulsion energy:     268.71797462227823

memory 7 GB

molecule Dimer_0_590 {
  O           -5.53102237       2.93940290       1.97762624
  O           -2.40708886       0.90817734       0.04905909
  H           -0.50304887       1.37579205       4.63880908
  H            0.00000000       4.25104285       3.09072238
  H           -2.38948215       4.01916779       5.40195041
  H           -3.74771411       0.47147930      -1.21557512
  C           -1.41859782       2.98500500       3.84405190
  C           -3.32263781       2.28628814       1.91221413
--
  O          -30.53758190      -0.92518151     -25.27742123
  O          -33.66151541      -2.95640708     -27.20598839
  H          -35.56555540      -2.48879236     -22.61623840
  H          -36.06860427       0.38645844     -24.16432509
  H          -33.67912212       0.15458338     -21.85309707
  H          -32.32089016      -3.39310511     -28.47062259
  C          -34.65000644      -0.87957941     -23.41099558
  C          -32.74596646      -1.57829627     -25.34283335
units = au
no_com
no_reorient
}

set {
  e_convergence 10
  d_convergence 10
  scf_type df
  mp2_type df
  cc_type df
  freeze_core true
}

energy('sapt0/aug-cc-pvdz')

--------------------------------------------------------------------------

  //              Dimer HF             //
    Molecular point group: c1
  Charge       = 0
  Multiplicity = 1
  Basis Set: AUG-CC-PVDZ
    Blend: AUG-CC-PVDZ
  Basis Set: (AUG-CC-PVDZ AUX)
    Blend: AUG-CC-PVDZ-JKFIT
  @DF-RHF Final Energy:  -455.68816986156122
    Total Energy =                       -455.6881698615612208
  //            Monomer A HF           //
    Molecular point group: c1
  Multiplicity = 1
  Basis Set: AUG-CC-PVDZ
    Blend: AUG-CC-PVDZ
  Basis Set: (AUG-CC-PVDZ AUX)
    Blend: AUG-CC-PVDZ-JKFIT
  @DF-RHF Final Energy:  -227.84408589701405
    Total Energy =                       -227.8440858970140539
  //            Monomer B HF           //
    Molecular point group: c1

    Geometry (in Bohr), charge = 0, multiplicity = 1:

       Center              X                  Y                   Z               Mass
    ------------   -----------------  -----------------  -----------------  -----------------
      Gh(O)          -5.531022370000     2.939402900000     1.977626240000    15.994914619570
      Gh(O)          -2.407088860000     0.908177340000     0.049059090000    15.994914619570
      Gh(H)          -0.503048870000     1.375792050000     4.638809080000     1.007825032230
      Gh(H)           0.000000000000     4.251042850000     3.090722380000     1.007825032230
      Gh(H)          -2.389482150000     4.019167790000     5.401950410000     1.007825032230
      Gh(H)          -3.747714110000     0.471479300000    -1.215575120000     1.007825032230
      Gh(C)          -1.418597820000     2.985005000000     3.844051900000    12.000000000000
      Gh(C)          -3.322637810000     2.286288140000     1.912214130000    12.000000000000
         O          -30.537581900000    -0.925181510000   -25.277421230000    15.994914619570
         O          -33.661515410000    -2.956407080000   -27.205988390000    15.994914619570
         H          -35.565555400000    -2.488792360000   -22.616238400000     1.007825032230
         H          -36.068604270000     0.386458440000   -24.164325090000     1.007825032230
         H          -33.679122120000     0.154583380000   -21.853097070000     1.007825032230
         H          -32.320890160000    -3.393105110000   -28.470622590000     1.007825032230
         C          -34.650006440000    -0.879579410000   -23.410995580000    12.000000000000
         C          -32.745966460000    -1.578296270000   -25.342833350000    12.000000000000

  Charge       = 0
  Multiplicity = 1
  Basis Set: AUG-CC-PVDZ
    Blend: AUG-CC-PVDZ
  Basis Set: (AUG-CC-PVDZ AUX)
    Blend: AUG-CC-PVDZ-JKFIT

    Orbital Energies [Eh]
    ---------------------

    Doubly Occupied:

       1A    -20.629476     2A    -20.552804     3A    -11.396108
       4A    -11.250979     5A     -1.475853     6A     -1.357486
       7A     -1.032999     8A     -0.837930     9A     -0.703065
      10A     -0.688465    11A     -0.657749    12A     -0.576538
      13A     -0.569697    14A     -0.561403    15A     -0.475343
      16A     -0.452434

  @DF-RHF Final Energy:  -227.84408589648552

   => Energetics <=

    Nuclear Repulsion Energy =            121.7484302071330546
    One-Electron Energy =                -552.7483714277362878
    Two-Electron Energy =                 203.1558553241176810
    Total Energy =                       -227.8440858964855238

  Dipole Moment: [D]
     X:    -2.1048      Y:    -0.7191      Z:    -0.2116     Total:     2.2342

    SAPT Results
  --------------------------------------------------------------------------------------------------------
    Electrostatics                  0.00196082 [mEh]       0.00123043 [kcal/mol]       0.00514813 [kJ/mol]
      Elst10,r                      0.00196082 [mEh]       0.00123043 [kcal/mol]       0.00514813 [kJ/mol]

    Exchange                       -0.00000000 [mEh]      -0.00000000 [kcal/mol]      -0.00000000 [kJ/mol]
      Exch10                       -0.00000000 [mEh]      -0.00000000 [kcal/mol]      -0.00000000 [kJ/mol]
      Exch10(S^2)                  -0.00000000 [mEh]      -0.00000000 [kcal/mol]      -0.00000000 [kJ/mol]

    Induction                      -0.00002888 [mEh]      -0.00001812 [kcal/mol]      -0.00007583 [kJ/mol]
      Ind20,r                      -0.00001840 [mEh]      -0.00001155 [kcal/mol]      -0.00004831 [kJ/mol]
      Exch-Ind20,r                  0.00000000 [mEh]       0.00000000 [kcal/mol]       0.00000000 [kJ/mol]
      delta HF,r (2)               -0.00001048 [mEh]      -0.00000658 [kcal/mol]      -0.00002751 [kJ/mol]

    Dispersion                     -0.00013050 [mEh]      -0.00008189 [kcal/mol]      -0.00034263 [kJ/mol]
      Disp20                       -0.00013050 [mEh]      -0.00008189 [kcal/mol]      -0.00034263 [kJ/mol]
      Exch-Disp20                   0.00000000 [mEh]       0.00000000 [kcal/mol]       0.00000000 [kJ/mol]
      Disp20 (SS)                  -0.00006525 [mEh]      -0.00004094 [kcal/mol]      -0.00017131 [kJ/mol]
      Disp20 (OS)                  -0.00006525 [mEh]      -0.00004094 [kcal/mol]      -0.00017131 [kJ/mol]
      Exch-Disp20 (SS)              0.00000000 [mEh]       0.00000000 [kcal/mol]       0.00000000 [kJ/mol]
      Exch-Disp20 (OS)              0.00000000 [mEh]       0.00000000 [kcal/mol]       0.00000000 [kJ/mol]

  Total HF                          0.00193194 [mEh]       0.00121231 [kcal/mol]       0.00507230 [kJ/mol]
  Total SAPT0                       0.00180144 [mEh]       0.00113042 [kcal/mol]       0.00472968 [kJ/mol]

  Special recipe for scaled SAPT0 (see Manual):
    Electrostatics sSAPT0           0.00196082 [mEh]       0.00123043 [kcal/mol]       0.00514813 [kJ/mol]
    Exchange sSAPT0                -0.00000000 [mEh]      -0.00000000 [kcal/mol]      -0.00000000 [kJ/mol]
    Induction sSAPT0               -0.00002888 [mEh]      -0.00001812 [kcal/mol]      -0.00007583 [kJ/mol]
    Dispersion sSAPT0              -0.00013050 [mEh]      -0.00008189 [kcal/mol]      -0.00034263 [kJ/mol]
  Total sSAPT0                      0.00180144 [mEh]       0.00113042 [kcal/mol]       0.00472968 [kJ/mol]
  --------------------------------------------------------------------------------------------------------

*** Psi4 exiting successfully. Buy a developer a beer!
