                               Psi4 1.4rc3

  ==> Input File <==

--------------------------------------------------------------------------
# PSI4 file produced by CrystaLattE

# Generated from:               acetic_acid.xyz
# Psithon input for N-mer:      2mer-0+402
# Number of atoms per monomer:  [8, 8]
# Number of replicas:           2
# COM priority:                 2.512989902298e-05
# Minimum COM separations:      18.066
# Separation priority:          3.656769355124e-05
# Minimum monomer separations:  15.943
# Cutoff priority:              1.213752372142e-06
# Nuclear repulsion energy:     273.38100619022896

memory 7 GB

molecule Dimer_0_402 {
  O           -5.53102237       2.93940290       1.97762624
  O           -2.40708886       0.90817734       0.04905909
  H           -0.50304887       1.37579205       4.63880908
  H            0.00000000       4.25104285       3.09072238
  H           -2.38948215       4.01916779       5.40195041
  H           -3.74771411       0.47147930      -1.21557512
  C           -1.41859782       2.98500500       3.84405190
  C           -3.32263781       2.28628814       1.91221413
--
  O          -30.53758190       6.80398732     -14.37540224
  O          -33.66151541       4.77276175     -16.30396940
  H          -35.56555540       5.24037646     -11.71421941
  H          -36.06860427       8.11562727     -13.26230610
  H          -33.67912212       7.88375220     -10.95107808
  H          -32.32089016       4.33606371     -17.56860360
  C          -34.65000644       6.84958941     -12.50897659
  C          -32.74596646       6.15087255     -14.44081435
units = au
no_com
no_reorient
}

set {
  e_convergence 10
  d_convergence 10
  scf_type df
  mp2_type df
  cc_type df
  freeze_core true
}

energy('sapt0/aug-cc-pvdz')

--------------------------------------------------------------------------

  //              Dimer HF             //
    Molecular point group: c1
  Charge       = 0
  Multiplicity = 1
  Basis Set: AUG-CC-PVDZ
    Blend: AUG-CC-PVDZ
  Basis Set: (AUG-CC-PVDZ AUX)
    Blend: AUG-CC-PVDZ-JKFIT
  @DF-RHF Final Energy:  -455.68813954013405
    Total Energy =                       -455.6881395401340455
  //            Monomer A HF           //
    Molecular point group: c1
  Multiplicity = 1
  Basis Set: AUG-CC-PVDZ
    Blend: AUG-CC-PVDZ
  Basis Set: (AUG-CC-PVDZ AUX)
    Blend: AUG-CC-PVDZ-JKFIT
  @DF-RHF Final Energy:  -227.84408589734380
    Total Energy =                       -227.8440858973438026
  //            Monomer B HF           //
    Molecular point group: c1

    Geometry (in Bohr), charge = 0, multiplicity = 1:

       Center              X                  Y                   Z               Mass
    ------------   -----------------  -----------------  -----------------  -----------------
      Gh(O)          -5.531022370000     2.939402900000     1.977626240000    15.994914619570
      Gh(O)          -2.407088860000     0.908177340000     0.049059090000    15.994914619570
      Gh(H)          -0.503048870000     1.375792050000     4.638809080000     1.007825032230
      Gh(H)           0.000000000000     4.251042850000     3.090722380000     1.007825032230
      Gh(H)          -2.389482150000     4.019167790000     5.401950410000     1.007825032230
      Gh(H)          -3.747714110000     0.471479300000    -1.215575120000     1.007825032230
      Gh(C)          -1.418597820000     2.985005000000     3.844051900000    12.000000000000
      Gh(C)          -3.322637810000     2.286288140000     1.912214130000    12.000000000000
         O          -30.537581900000     6.803987320000   -14.375402240000    15.994914619570
         O          -33.661515410000     4.772761750000   -16.303969400000    15.994914619570
         H          -35.565555400000     5.240376460000   -11.714219410000     1.007825032230
         H          -36.068604270000     8.115627270000   -13.262306100000     1.007825032230
         H          -33.679122120000     7.883752200000   -10.951078080000     1.007825032230
         H          -32.320890160000     4.336063710000   -17.568603600000     1.007825032230
         C          -34.650006440000     6.849589410000   -12.508976590000    12.000000000000
         C          -32.745966460000     6.150872550000   -14.440814350000    12.000000000000

  Charge       = 0
  Multiplicity = 1
  Basis Set: AUG-CC-PVDZ
    Blend: AUG-CC-PVDZ
  Basis Set: (AUG-CC-PVDZ AUX)
    Blend: AUG-CC-PVDZ-JKFIT

    Orbital Energies [Eh]
    ---------------------

    Doubly Occupied:

       1A    -20.629476     2A    -20.552804     3A    -11.396108
       4A    -11.250979     5A     -1.475853     6A     -1.357486
       7A     -1.032999     8A     -0.837930     9A     -0.703065
      10A     -0.688465    11A     -0.657749    12A     -0.576538
      13A     -0.569697    14A     -0.561403    15A     -0.475343
      16A     -0.452434

  @DF-RHF Final Energy:  -227.84408589573155

   => Energetics <=

    Nuclear Repulsion Energy =            121.7484301977018504
    One-Electron Energy =                -552.7483714127906751
    Two-Electron Energy =                 203.1558553193572720
    Total Energy =                       -227.8440858957315527

  Dipole Moment: [D]
     X:    -2.1048      Y:    -0.7191      Z:    -0.2116     Total:     2.2342

    SAPT Results
  --------------------------------------------------------------------------------------------------------
    Electrostatics                  0.03232932 [mEh]       0.02028695 [kcal/mol]       0.08488062 [kJ/mol]
      Elst10,r                      0.03232932 [mEh]       0.02028695 [kcal/mol]       0.08488062 [kJ/mol]

    Exchange                       -0.00000000 [mEh]      -0.00000000 [kcal/mol]      -0.00000000 [kJ/mol]
      Exch10                       -0.00000000 [mEh]      -0.00000000 [kcal/mol]      -0.00000000 [kJ/mol]
      Exch10(S^2)                  -0.00000000 [mEh]      -0.00000000 [kcal/mol]      -0.00000000 [kJ/mol]

    Induction                      -0.00007638 [mEh]      -0.00004793 [kcal/mol]      -0.00020053 [kJ/mol]
      Ind20,r                      -0.00007185 [mEh]      -0.00004509 [kcal/mol]      -0.00018865 [kJ/mol]
      Exch-Ind20,r                  0.00000000 [mEh]       0.00000000 [kcal/mol]       0.00000000 [kJ/mol]
      delta HF,r (2)               -0.00000452 [mEh]      -0.00000284 [kcal/mol]      -0.00001188 [kJ/mol]

    Dispersion                     -0.00036465 [mEh]      -0.00022882 [kcal/mol]      -0.00095739 [kJ/mol]
      Disp20                       -0.00036465 [mEh]      -0.00022882 [kcal/mol]      -0.00095739 [kJ/mol]
      Exch-Disp20                   0.00000000 [mEh]       0.00000000 [kcal/mol]       0.00000000 [kJ/mol]
      Disp20 (SS)                  -0.00018233 [mEh]      -0.00011441 [kcal/mol]      -0.00047869 [kJ/mol]
      Disp20 (OS)                  -0.00018233 [mEh]      -0.00011441 [kcal/mol]      -0.00047869 [kJ/mol]
      Exch-Disp20 (SS)              0.00000000 [mEh]       0.00000000 [kcal/mol]       0.00000000 [kJ/mol]
      Exch-Disp20 (OS)              0.00000000 [mEh]       0.00000000 [kcal/mol]       0.00000000 [kJ/mol]

  Total HF                          0.03225294 [mEh]       0.02023903 [kcal/mol]       0.08468009 [kJ/mol]
  Total SAPT0                       0.03188829 [mEh]       0.02001020 [kcal/mol]       0.08372270 [kJ/mol]

  Special recipe for scaled SAPT0 (see Manual):
    Electrostatics sSAPT0           0.03232932 [mEh]       0.02028695 [kcal/mol]       0.08488062 [kJ/mol]
    Exchange sSAPT0                -0.00000000 [mEh]      -0.00000000 [kcal/mol]      -0.00000000 [kJ/mol]
    Induction sSAPT0               -0.00007638 [mEh]      -0.00004793 [kcal/mol]      -0.00020053 [kJ/mol]
    Dispersion sSAPT0              -0.00036465 [mEh]      -0.00022882 [kcal/mol]      -0.00095739 [kJ/mol]
  Total sSAPT0                      0.03188829 [mEh]       0.02001020 [kcal/mol]       0.08372270 [kJ/mol]
  --------------------------------------------------------------------------------------------------------

*** Psi4 exiting successfully. Buy a developer a beer!
