                               Psi4 1.4rc3

  ==> Input File <==

--------------------------------------------------------------------------
# PSI4 file produced by CrystaLattE

# Generated from:               acetic_acid.xyz
# Psithon input for N-mer:      2mer-0+288
# Number of atoms per monomer:  [8, 8]
# Number of replicas:           2
# COM priority:                 3.538121865239e-05
# Minimum COM separations:      16.119
# Separation priority:          5.766477605584e-05
# Minimum monomer separations:  13.697
# Cutoff priority:              2.227823665512e-06
# Nuclear repulsion energy:     276.991954289838

memory 7 GB

molecule Dimer_0_288 {
  O           -5.53102237       2.93940290       1.97762624
  O           -2.40708886       0.90817734       0.04905909
  H           -0.50304887       1.37579205       4.63880908
  H            0.00000000       4.25104285       3.09072238
  H           -2.38948215       4.01916779       5.40195041
  H           -3.74771411       0.47147930      -1.21557512
  C           -1.41859782       2.98500500       3.84405190
  C           -3.32263781       2.28628814       1.91221413
--
  O          -30.53758190      -0.92518151      -3.47338325
  O          -33.66151541      -2.95640708      -5.40195041
  H          -35.56555540      -2.48879236      -0.81220041
  H          -36.06860427       0.38645844      -2.36028711
  H          -33.67912212       0.15458338      -0.04905909
  H          -32.32089016      -3.39310511      -6.66658461
  C          -34.65000644      -0.87957941      -1.60695760
  C          -32.74596646      -1.57829627      -3.53879536
units = au
no_com
no_reorient
}

set {
  e_convergence 10
  d_convergence 10
  scf_type df
  mp2_type df
  cc_type df
  freeze_core true
}

energy('sapt0/aug-cc-pvdz')

--------------------------------------------------------------------------

  //              Dimer HF             //
    Molecular point group: c1
  Charge       = 0
  Multiplicity = 1
  Basis Set: AUG-CC-PVDZ
    Blend: AUG-CC-PVDZ
  Basis Set: (AUG-CC-PVDZ AUX)
    Blend: AUG-CC-PVDZ-JKFIT
  @DF-RHF Final Energy:  -455.68808854096295
    Total Energy =                       -455.6880885409629514
  //            Monomer A HF           //
    Molecular point group: c1
  Multiplicity = 1
  Basis Set: AUG-CC-PVDZ
    Blend: AUG-CC-PVDZ
  Basis Set: (AUG-CC-PVDZ AUX)
    Blend: AUG-CC-PVDZ-JKFIT
  @DF-RHF Final Energy:  -227.84408589766872
    Total Energy =                       -227.8440858976687196
  //            Monomer B HF           //
    Molecular point group: c1

    Geometry (in Bohr), charge = 0, multiplicity = 1:

       Center              X                  Y                   Z               Mass
    ------------   -----------------  -----------------  -----------------  -----------------
      Gh(O)          -5.531022370000     2.939402900000     1.977626240000    15.994914619570
      Gh(O)          -2.407088860000     0.908177340000     0.049059090000    15.994914619570
      Gh(H)          -0.503048870000     1.375792050000     4.638809080000     1.007825032230
      Gh(H)           0.000000000000     4.251042850000     3.090722380000     1.007825032230
      Gh(H)          -2.389482150000     4.019167790000     5.401950410000     1.007825032230
      Gh(H)          -3.747714110000     0.471479300000    -1.215575120000     1.007825032230
      Gh(C)          -1.418597820000     2.985005000000     3.844051900000    12.000000000000
      Gh(C)          -3.322637810000     2.286288140000     1.912214130000    12.000000000000
         O          -30.537581900000    -0.925181510000    -3.473383250000    15.994914619570
         O          -33.661515410000    -2.956407080000    -5.401950410000    15.994914619570
         H          -35.565555400000    -2.488792360000    -0.812200410000     1.007825032230
         H          -36.068604270000     0.386458440000    -2.360287110000     1.007825032230
         H          -33.679122120000     0.154583380000    -0.049059090000     1.007825032230
         H          -32.320890160000    -3.393105110000    -6.666584610000     1.007825032230
         C          -34.650006440000    -0.879579410000    -1.606957600000    12.000000000000
         C          -32.745966460000    -1.578296270000    -3.538795360000    12.000000000000

  Charge       = 0
  Multiplicity = 1
  Basis Set: AUG-CC-PVDZ
    Blend: AUG-CC-PVDZ
  Basis Set: (AUG-CC-PVDZ AUX)
    Blend: AUG-CC-PVDZ-JKFIT

    Orbital Energies [Eh]
    ---------------------

    Doubly Occupied:

       1A    -20.629476     2A    -20.552804     3A    -11.396108
       4A    -11.250979     5A     -1.475853     6A     -1.357486
       7A     -1.032999     8A     -0.837930     9A     -0.703065
      10A     -0.688465    11A     -0.657749    12A     -0.576538
      13A     -0.569697    14A     -0.561403    15A     -0.475343
      16A     -0.452434

  @DF-RHF Final Energy:  -227.84408589740713

   => Energetics <=

    Nuclear Repulsion Energy =            121.7484301737502079
    One-Electron Energy =                -552.7483713670429779
    Two-Electron Energy =                 203.1558552958856581
    Total Energy =                       -227.8440858974071261

  Dipole Moment: [D]
     X:    -2.1048      Y:    -0.7191      Z:    -0.2116     Total:     2.2342

    SAPT Results
  --------------------------------------------------------------------------------------------------------
    Electrostatics                  0.08346601 [mEh]       0.05237571 [kcal/mol]       0.21913998 [kJ/mol]
      Elst10,r                      0.08346601 [mEh]       0.05237571 [kcal/mol]       0.21913998 [kJ/mol]

    Exchange                       -0.00000000 [mEh]      -0.00000000 [kcal/mol]      -0.00000000 [kJ/mol]
      Exch10                       -0.00000000 [mEh]      -0.00000000 [kcal/mol]      -0.00000000 [kJ/mol]
      Exch10(S^2)                  -0.00000000 [mEh]      -0.00000000 [kcal/mol]      -0.00000000 [kJ/mol]

    Induction                      -0.00021190 [mEh]      -0.00013297 [kcal/mol]      -0.00055633 [kJ/mol]
      Ind20,r                      -0.00021352 [mEh]      -0.00013399 [kcal/mol]      -0.00056060 [kJ/mol]
      Exch-Ind20,r                  0.00000000 [mEh]       0.00000000 [kcal/mol]       0.00000000 [kJ/mol]
      delta HF,r (2)                0.00000163 [mEh]       0.00000102 [kcal/mol]       0.00000427 [kJ/mol]

    Dispersion                     -0.00076798 [mEh]      -0.00048191 [kcal/mol]      -0.00201633 [kJ/mol]
      Disp20                       -0.00076798 [mEh]      -0.00048191 [kcal/mol]      -0.00201633 [kJ/mol]
      Exch-Disp20                   0.00000000 [mEh]       0.00000000 [kcal/mol]       0.00000000 [kJ/mol]
      Disp20 (SS)                  -0.00038399 [mEh]      -0.00024096 [kcal/mol]      -0.00100817 [kJ/mol]
      Disp20 (OS)                  -0.00038399 [mEh]      -0.00024096 [kcal/mol]      -0.00100817 [kJ/mol]
      Exch-Disp20 (SS)              0.00000000 [mEh]       0.00000000 [kcal/mol]       0.00000000 [kJ/mol]
      Exch-Disp20 (OS)              0.00000000 [mEh]       0.00000000 [kcal/mol]       0.00000000 [kJ/mol]

  Total HF                          0.08325411 [mEh]       0.05224274 [kcal/mol]       0.21858364 [kJ/mol]
  Total SAPT0                       0.08248613 [mEh]       0.05176083 [kcal/mol]       0.21656731 [kJ/mol]

  Special recipe for scaled SAPT0 (see Manual):
    Electrostatics sSAPT0           0.08346601 [mEh]       0.05237571 [kcal/mol]       0.21913998 [kJ/mol]
    Exchange sSAPT0                -0.00000000 [mEh]      -0.00000000 [kcal/mol]      -0.00000000 [kJ/mol]
    Induction sSAPT0               -0.00021190 [mEh]      -0.00013297 [kcal/mol]      -0.00055633 [kJ/mol]
    Dispersion sSAPT0              -0.00076798 [mEh]      -0.00048191 [kcal/mol]      -0.00201633 [kJ/mol]
  Total sSAPT0                      0.08248613 [mEh]       0.05176083 [kcal/mol]       0.21656731 [kJ/mol]
  --------------------------------------------------------------------------------------------------------

*** Psi4 exiting successfully. Buy a developer a beer!
