                               Psi4 1.4rc3

  ==> Input File <==

--------------------------------------------------------------------------
# PSI4 file produced by CrystaLattE

# Generated from:               acetic_acid.xyz
# Psithon input for N-mer:      2mer-0+48
# Number of atoms per monomer:  [8, 8]
# Number of replicas:           2
# COM priority:                 1.894024308960e-04
# Minimum COM separations:      9.215
# Separation priority:          4.411523955417e-04
# Minimum monomer separations:  6.951
# Cutoff priority:              3.358289945127e-05
# Nuclear repulsion energy:     301.9742610650323

memory 7 GB

molecule Dimer_0_48 {
  O           -5.53102237       2.93940290       1.97762624
  O           -2.40708886       0.90817734       0.04905909
  H           -0.50304887       1.37579205       4.63880908
  H            0.00000000       4.25104285       3.09072238
  H           -2.38948215       4.01916779       5.40195041
  H           -3.74771411       0.47147930      -1.21557512
  C           -1.41859782       2.98500500       3.84405190
  C           -3.32263781       2.28628814       1.91221413
--
  O           -5.38513820       6.80398732     -14.37540224
  O           -8.50907170       4.77276175     -16.30396940
  H          -10.41311169       5.24037646     -11.71421941
  H          -10.91616057       8.11562727     -13.26230610
  H           -8.52667842       7.88375220     -10.95107808
  H           -7.16844646       4.33606371     -17.56860360
  C           -9.49756274       6.84958941     -12.50897659
  C           -7.59352275       6.15087255     -14.44081435
units = au
no_com
no_reorient
}

set {
  e_convergence 10
  d_convergence 10
  scf_type df
  mp2_type df
  cc_type df
  freeze_core true
}

energy('sapt0/aug-cc-pvdz')

--------------------------------------------------------------------------

  //              Dimer HF             //
    Molecular point group: c1
  Charge       = 0
  Multiplicity = 1
  Basis Set: AUG-CC-PVDZ
    Blend: AUG-CC-PVDZ
  Basis Set: (AUG-CC-PVDZ AUX)
    Blend: AUG-CC-PVDZ-JKFIT
  @DF-RHF Final Energy:  -455.68832552721369
    Total Energy =                       -455.6883255272136921
  //            Monomer A HF           //
    Molecular point group: c1
  Multiplicity = 1
  Basis Set: AUG-CC-PVDZ
    Blend: AUG-CC-PVDZ
  Basis Set: (AUG-CC-PVDZ AUX)
    Blend: AUG-CC-PVDZ-JKFIT
  @DF-RHF Final Energy:  -227.84408826245337
    Total Energy =                       -227.8440882624533685
  //            Monomer B HF           //
    Molecular point group: c1

    Geometry (in Bohr), charge = 0, multiplicity = 1:

       Center              X                  Y                   Z               Mass
    ------------   -----------------  -----------------  -----------------  -----------------
      Gh(O)          -5.531022370000     2.939402900000     1.977626240000    15.994914619570
      Gh(O)          -2.407088860000     0.908177340000     0.049059090000    15.994914619570
      Gh(H)          -0.503048870000     1.375792050000     4.638809080000     1.007825032230
      Gh(H)           0.000000000000     4.251042850000     3.090722380000     1.007825032230
      Gh(H)          -2.389482150000     4.019167790000     5.401950410000     1.007825032230
      Gh(H)          -3.747714110000     0.471479300000    -1.215575120000     1.007825032230
      Gh(C)          -1.418597820000     2.985005000000     3.844051900000    12.000000000000
      Gh(C)          -3.322637810000     2.286288140000     1.912214130000    12.000000000000
         O           -5.385138200000     6.803987320000   -14.375402240000    15.994914619570
         O           -8.509071700000     4.772761750000   -16.303969400000    15.994914619570
         H          -10.413111690000     5.240376460000   -11.714219410000     1.007825032230
         H          -10.916160570000     8.115627270000   -13.262306100000     1.007825032230
         H           -8.526678420000     7.883752200000   -10.951078080000     1.007825032230
         H           -7.168446460000     4.336063710000   -17.568603600000     1.007825032230
         C           -9.497562740000     6.849589410000   -12.508976590000    12.000000000000
         C           -7.593522750000     6.150872550000   -14.440814350000    12.000000000000

  Charge       = 0
  Multiplicity = 1
  Basis Set: AUG-CC-PVDZ
    Blend: AUG-CC-PVDZ
  Basis Set: (AUG-CC-PVDZ AUX)
    Blend: AUG-CC-PVDZ-JKFIT

    Orbital Energies [Eh]
    ---------------------

    Doubly Occupied:

       1A    -20.629476     2A    -20.552805     3A    -11.396107
       4A    -11.250980     5A     -1.475852     6A     -1.357486
       7A     -1.033000     8A     -0.837930     9A     -0.703065
      10A     -0.688465    11A     -0.657749    12A     -0.576538
      13A     -0.569698    14A     -0.561404    15A     -0.475344
      16A     -0.452434

  @DF-RHF Final Energy:  -227.84408888498956

   => Energetics <=

    Nuclear Repulsion Energy =            121.7484302949528825
    One-Electron Energy =                -552.7483750064402557
    Two-Electron Energy =                 203.1558558264978274
    Total Energy =                       -227.8440888849895600

  Dipole Moment: [D]
     X:    -2.1047      Y:    -0.7190      Z:    -0.2114     Total:     2.2342

    SAPT Results
  --------------------------------------------------------------------------------------------------------
    Electrostatics                 -0.14640592 [mEh]      -0.09187110 [kcal/mol]      -0.38438870 [kJ/mol]
      Elst10,r                     -0.14640592 [mEh]      -0.09187110 [kcal/mol]      -0.38438870 [kJ/mol]

    Exchange                       -0.00000152 [mEh]      -0.00000096 [kcal/mol]      -0.00000400 [kJ/mol]
      Exch10                       -0.00000152 [mEh]      -0.00000096 [kcal/mol]      -0.00000400 [kJ/mol]
      Exch10(S^2)                  -0.00000152 [mEh]      -0.00000096 [kcal/mol]      -0.00000400 [kJ/mol]

    Induction                      -0.00197232 [mEh]      -0.00123765 [kcal/mol]      -0.00517834 [kJ/mol]
      Ind20,r                      -0.00181168 [mEh]      -0.00113684 [kcal/mol]      -0.00475656 [kJ/mol]
      Exch-Ind20,r                  0.00000120 [mEh]       0.00000075 [kcal/mol]       0.00000314 [kJ/mol]
      delta HF,r (2)               -0.00016184 [mEh]      -0.00010156 [kcal/mol]      -0.00042492 [kJ/mol]

    Dispersion                     -0.02194245 [mEh]      -0.01376909 [kcal/mol]      -0.05760989 [kJ/mol]
      Disp20                       -0.02194286 [mEh]      -0.01376935 [kcal/mol]      -0.05761098 [kJ/mol]
      Exch-Disp20                   0.00000042 [mEh]       0.00000026 [kcal/mol]       0.00000109 [kJ/mol]
      Disp20 (SS)                  -0.01097143 [mEh]      -0.00688468 [kcal/mol]      -0.02880549 [kJ/mol]
      Disp20 (OS)                  -0.01097143 [mEh]      -0.00688468 [kcal/mol]      -0.02880549 [kJ/mol]
      Exch-Disp20 (SS)              0.00000035 [mEh]       0.00000022 [kcal/mol]       0.00000091 [kJ/mol]
      Exch-Disp20 (OS)              0.00000007 [mEh]       0.00000004 [kcal/mol]       0.00000019 [kJ/mol]

  Total HF                         -0.14837977 [mEh]      -0.09310971 [kcal/mol]      -0.38957103 [kJ/mol]
  Total SAPT0                      -0.17032222 [mEh]      -0.10687881 [kcal/mol]      -0.44718092 [kJ/mol]

  Special recipe for scaled SAPT0 (see Manual):
    Electrostatics sSAPT0          -0.14640592 [mEh]      -0.09187110 [kcal/mol]      -0.38438870 [kJ/mol]
    Exchange sSAPT0                -0.00000152 [mEh]      -0.00000096 [kcal/mol]      -0.00000400 [kJ/mol]
    Induction sSAPT0               -0.00197232 [mEh]      -0.00123765 [kcal/mol]      -0.00517834 [kJ/mol]
    Dispersion sSAPT0              -0.02194245 [mEh]      -0.01376909 [kcal/mol]      -0.05760989 [kJ/mol]
  Total sSAPT0                     -0.17032222 [mEh]      -0.10687881 [kcal/mol]      -0.44718092 [kJ/mol]
  --------------------------------------------------------------------------------------------------------

*** Psi4 exiting successfully. Buy a developer a beer!
