                               Psi4 1.4rc3

  ==> Input File <==

--------------------------------------------------------------------------
# PSI4 file produced by CrystaLattE

# Generated from:               acetic_acid.xyz
# Psithon input for N-mer:      2mer-0+108
# Number of atoms per monomer:  [8, 8]
# Number of replicas:           2
# COM priority:                 8.906980868806e-05
# Minimum COM separations:      11.849
# Separation priority:          1.959374573248e-04
# Minimum monomer separations:  9.111
# Cutoff priority:              1.138037633542e-05
# Nuclear repulsion energy:     289.35923176655933

memory 7 GB

molecule Dimer_0_108 {
  O           -5.53102237       2.93940290       1.97762624
  O           -2.40708886       0.90817734       0.04905909
  H           -0.50304887       1.37579205       4.63880908
  H            0.00000000       4.25104285       3.09072238
  H           -2.38948215       4.01916779       5.40195041
  H           -3.74771411       0.47147930      -1.21557512
  C           -1.41859782       2.98500500       3.84405190
  C           -3.32263781       2.28628814       1.91221413
--
  O          -18.10724422      16.53810254      -8.92439275
  O          -14.98331071      18.56932810     -10.85295990
  H          -13.07927073      18.10171339      -6.26320991
  H          -12.57622185      15.22646259      -7.81129661
  H          -14.96570400      15.45833765      -5.50006858
  H          -16.32393596      19.00602614     -12.11759411
  C          -13.99481968      16.49250044      -7.05796709
  C          -15.89885966      17.19121730      -8.98980486
units = au
no_com
no_reorient
}

set {
  e_convergence 10
  d_convergence 10
  scf_type df
  mp2_type df
  cc_type df
  freeze_core true
}

energy('sapt0/aug-cc-pvdz')

--------------------------------------------------------------------------

  //              Dimer HF             //
    Molecular point group: c1
  Charge       = 0
  Multiplicity = 1
  Basis Set: AUG-CC-PVDZ
    Blend: AUG-CC-PVDZ
  Basis Set: (AUG-CC-PVDZ AUX)
    Blend: AUG-CC-PVDZ-JKFIT
  @DF-RHF Final Energy:  -455.68820491893331
    Total Energy =                       -455.6882049189333088
  //            Monomer A HF           //
    Molecular point group: c1
  Multiplicity = 1
  Basis Set: AUG-CC-PVDZ
    Blend: AUG-CC-PVDZ
  Basis Set: (AUG-CC-PVDZ AUX)
    Blend: AUG-CC-PVDZ-JKFIT
  @DF-RHF Final Energy:  -227.84408610748710
    Total Energy =                       -227.8440861074871009
  //            Monomer B HF           //
    Molecular point group: c1

    Geometry (in Bohr), charge = 0, multiplicity = 1:

       Center              X                  Y                   Z               Mass
    ------------   -----------------  -----------------  -----------------  -----------------
      Gh(O)          -5.531022370000     2.939402900000     1.977626240000    15.994914619570
      Gh(O)          -2.407088860000     0.908177340000     0.049059090000    15.994914619570
      Gh(H)          -0.503048870000     1.375792050000     4.638809080000     1.007825032230
      Gh(H)           0.000000000000     4.251042850000     3.090722380000     1.007825032230
      Gh(H)          -2.389482150000     4.019167790000     5.401950410000     1.007825032230
      Gh(H)          -3.747714110000     0.471479300000    -1.215575120000     1.007825032230
      Gh(C)          -1.418597820000     2.985005000000     3.844051900000    12.000000000000
      Gh(C)          -3.322637810000     2.286288140000     1.912214130000    12.000000000000
         O          -18.107244220000    16.538102540000    -8.924392750000    15.994914619570
         O          -14.983310710000    18.569328100000   -10.852959900000    15.994914619570
         H          -13.079270730000    18.101713390000    -6.263209910000     1.007825032230
         H          -12.576221850000    15.226462590000    -7.811296610000     1.007825032230
         H          -14.965704000000    15.458337650000    -5.500068580000     1.007825032230
         H          -16.323935960000    19.006026140000   -12.117594110000     1.007825032230
         C          -13.994819680000    16.492500440000    -7.057967090000    12.000000000000
         C          -15.898859660000    17.191217300000    -8.989804860000    12.000000000000

  Charge       = 0
  Multiplicity = 1
  Basis Set: AUG-CC-PVDZ
    Blend: AUG-CC-PVDZ
  Basis Set: (AUG-CC-PVDZ AUX)
    Blend: AUG-CC-PVDZ-JKFIT

    Orbital Energies [Eh]
    ---------------------

    Doubly Occupied:

       1A    -20.629476     2A    -20.552804     3A    -11.396108
       4A    -11.250979     5A     -1.475853     6A     -1.357486
       7A     -1.032999     8A     -0.837930     9A     -0.703065
      10A     -0.688465    11A     -0.657749    12A     -0.576538
      13A     -0.569697    14A     -0.561403    15A     -0.475343
      16A     -0.452434

  @DF-RHF Final Energy:  -227.84408600477701

   => Energetics <=

    Nuclear Repulsion Energy =            121.7484302721606895
    One-Electron Energy =                -552.7483720076742202
    Two-Electron Energy =                 203.1558557307365049
    Total Energy =                       -227.8440860047770116

  Dipole Moment: [D]
     X:     2.1047      Y:     0.7191      Z:    -0.2116     Total:     2.2342

    SAPT Results
  --------------------------------------------------------------------------------------------------------
    Electrostatics                 -0.03198291 [mEh]      -0.02006958 [kcal/mol]      -0.08397112 [kJ/mol]
      Elst10,r                     -0.03198291 [mEh]      -0.02006958 [kcal/mol]      -0.08397112 [kJ/mol]

    Exchange                        0.00000013 [mEh]       0.00000008 [kcal/mol]       0.00000035 [kJ/mol]
      Exch10                        0.00000013 [mEh]       0.00000008 [kcal/mol]       0.00000035 [kJ/mol]
      Exch10(S^2)                   0.00000013 [mEh]       0.00000008 [kcal/mol]       0.00000035 [kJ/mol]

    Induction                      -0.00082389 [mEh]      -0.00051700 [kcal/mol]      -0.00216312 [kJ/mol]
      Ind20,r                      -0.00078331 [mEh]      -0.00049153 [kcal/mol]      -0.00205657 [kJ/mol]
      Exch-Ind20,r                  0.00000038 [mEh]       0.00000024 [kcal/mol]       0.00000099 [kJ/mol]
      delta HF,r (2)               -0.00004096 [mEh]      -0.00002570 [kcal/mol]      -0.00010754 [kJ/mol]

    Dispersion                     -0.00572229 [mEh]      -0.00359079 [kcal/mol]      -0.01502386 [kJ/mol]
      Disp20                       -0.00572232 [mEh]      -0.00359081 [kcal/mol]      -0.01502396 [kJ/mol]
      Exch-Disp20                   0.00000004 [mEh]       0.00000002 [kcal/mol]       0.00000009 [kJ/mol]
      Disp20 (SS)                  -0.00286116 [mEh]      -0.00179541 [kcal/mol]      -0.00751198 [kJ/mol]
      Disp20 (OS)                  -0.00286116 [mEh]      -0.00179541 [kcal/mol]      -0.00751198 [kJ/mol]
      Exch-Disp20 (SS)              0.00000003 [mEh]       0.00000002 [kcal/mol]       0.00000008 [kJ/mol]
      Exch-Disp20 (OS)              0.00000001 [mEh]       0.00000000 [kcal/mol]       0.00000002 [kJ/mol]

  Total HF                         -0.03280667 [mEh]      -0.02058650 [kcal/mol]      -0.08613390 [kJ/mol]
  Total SAPT0                      -0.03852896 [mEh]      -0.02417729 [kcal/mol]      -0.10115776 [kJ/mol]

  Special recipe for scaled SAPT0 (see Manual):
    Electrostatics sSAPT0          -0.03198291 [mEh]      -0.02006958 [kcal/mol]      -0.08397112 [kJ/mol]
    Exchange sSAPT0                 0.00000013 [mEh]       0.00000008 [kcal/mol]       0.00000035 [kJ/mol]
    Induction sSAPT0               -0.00082389 [mEh]      -0.00051700 [kcal/mol]      -0.00216312 [kJ/mol]
    Dispersion sSAPT0              -0.00572229 [mEh]      -0.00359079 [kcal/mol]      -0.01502386 [kJ/mol]
  Total sSAPT0                     -0.03852896 [mEh]      -0.02417729 [kcal/mol]      -0.10115776 [kJ/mol]
  --------------------------------------------------------------------------------------------------------

*** Psi4 exiting successfully. Buy a developer a beer!
