                               Psi4 1.4rc3

  ==> Input File <==

--------------------------------------------------------------------------
# PSI4 file produced by CrystaLattE

# Generated from:               acetic_acid.xyz
# Psithon input for N-mer:      2mer-0+104
# Number of atoms per monomer:  [8, 8]
# Number of replicas:           2
# COM priority:                 4.205762239654e-05
# Minimum COM separations:      15.217
# Separation priority:          8.041339412824e-05
# Minimum monomer separations:  12.260
# Cutoff priority:              3.470866085821e-06
# Nuclear repulsion energy:     279.2956067044545

memory 7 GB

molecule Dimer_0_104 {
  O           -5.53102237       2.93940290       1.97762624
  O           -2.40708886       0.90817734       0.04905909
  H           -0.50304887       1.37579205       4.63880908
  H            0.00000000       4.25104285       3.09072238
  H           -2.38948215       4.01916779       5.40195041
  H           -3.74771411       0.47147930      -1.21557512
  C           -1.41859782       2.98500500       3.84405190
  C           -3.32263781       2.28628814       1.91221413
--
  O           19.76730551     -16.38351916      -3.47338325
  O           16.64337200     -18.41474473      -5.40195041
  H           14.73933201     -17.94713001      -0.81220041
  H           14.23628314     -15.07187921      -2.36028711
  H           16.62576529     -15.30375427      -0.04905909
  H           17.98399725     -18.85144277      -6.66658461
  C           15.65488096     -16.33791706      -1.60695760
  C           17.55892095     -17.03663393      -3.53879536
units = au
no_com
no_reorient
}

set {
  e_convergence 10
  d_convergence 10
  scf_type df
  mp2_type df
  cc_type df
  freeze_core true
}

energy('sapt0/aug-cc-pvdz')

--------------------------------------------------------------------------

  //              Dimer HF             //
    Molecular point group: c1
  Charge       = 0
  Multiplicity = 1
  Basis Set: AUG-CC-PVDZ
    Blend: AUG-CC-PVDZ
  Basis Set: (AUG-CC-PVDZ AUX)
    Blend: AUG-CC-PVDZ-JKFIT
  @DF-RHF Final Energy:  -455.68815712658136
    Total Energy =                       -455.6881571265813591
  //            Monomer A HF           //
    Molecular point group: c1
  Multiplicity = 1
  Basis Set: AUG-CC-PVDZ
    Blend: AUG-CC-PVDZ
  Basis Set: (AUG-CC-PVDZ AUX)
    Blend: AUG-CC-PVDZ-JKFIT
  @DF-RHF Final Energy:  -227.84408589505119
    Total Energy =                       -227.8440858950511938
  //            Monomer B HF           //
    Molecular point group: c1

    Geometry (in Bohr), charge = 0, multiplicity = 1:

       Center              X                  Y                   Z               Mass
    ------------   -----------------  -----------------  -----------------  -----------------
      Gh(O)          -5.531022370000     2.939402900000     1.977626240000    15.994914619570
      Gh(O)          -2.407088860000     0.908177340000     0.049059090000    15.994914619570
      Gh(H)          -0.503048870000     1.375792050000     4.638809080000     1.007825032230
      Gh(H)           0.000000000000     4.251042850000     3.090722380000     1.007825032230
      Gh(H)          -2.389482150000     4.019167790000     5.401950410000     1.007825032230
      Gh(H)          -3.747714110000     0.471479300000    -1.215575120000     1.007825032230
      Gh(C)          -1.418597820000     2.985005000000     3.844051900000    12.000000000000
      Gh(C)          -3.322637810000     2.286288140000     1.912214130000    12.000000000000
         O           19.767305510000   -16.383519160000    -3.473383250000    15.994914619570
         O           16.643372000000   -18.414744730000    -5.401950410000    15.994914619570
         H           14.739332010000   -17.947130010000    -0.812200410000     1.007825032230
         H           14.236283140000   -15.071879210000    -2.360287110000     1.007825032230
         H           16.625765290000   -15.303754270000    -0.049059090000     1.007825032230
         H           17.983997250000   -18.851442770000    -6.666584610000     1.007825032230
         C           15.654880960000   -16.337917060000    -1.606957600000    12.000000000000
         C           17.558920950000   -17.036633930000    -3.538795360000    12.000000000000

  Charge       = 0
  Multiplicity = 1
  Basis Set: AUG-CC-PVDZ
    Blend: AUG-CC-PVDZ
  Basis Set: (AUG-CC-PVDZ AUX)
    Blend: AUG-CC-PVDZ-JKFIT

    Orbital Energies [Eh]
    ---------------------

    Doubly Occupied:

       1A    -20.629476     2A    -20.552804     3A    -11.396108
       4A    -11.250979     5A     -1.475853     6A     -1.357486
       7A     -1.032999     8A     -0.837930     9A     -0.703065
      10A     -0.688465    11A     -0.657749    12A     -0.576538
      13A     -0.569697    14A     -0.561403    15A     -0.475343
      16A     -0.452434

  @DF-RHF Final Energy:  -227.84408589018028

   => Energetics <=

    Nuclear Repulsion Energy =            121.7484301203005543
    One-Electron Energy =                -552.7483712314241302
    Two-Electron Energy =                 203.1558552209432946
    Total Energy =                       -227.8440858901802812

  Dipole Moment: [D]
     X:    -2.1048      Y:    -0.7191      Z:    -0.2116     Total:     2.2342

    SAPT Results
  --------------------------------------------------------------------------------------------------------
    Electrostatics                  0.01476081 [mEh]       0.00926255 [kcal/mol]       0.03875450 [kJ/mol]
      Elst10,r                      0.01476081 [mEh]       0.00926255 [kcal/mol]       0.03875450 [kJ/mol]

    Exchange                        0.00000000 [mEh]       0.00000000 [kcal/mol]       0.00000000 [kJ/mol]
      Exch10                        0.00000000 [mEh]       0.00000000 [kcal/mol]       0.00000000 [kJ/mol]
      Exch10(S^2)                   0.00000000 [mEh]       0.00000000 [kcal/mol]       0.00000000 [kJ/mol]

    Induction                      -0.00010216 [mEh]      -0.00006411 [kcal/mol]      -0.00026822 [kJ/mol]
      Ind20,r                      -0.00007076 [mEh]      -0.00004440 [kcal/mol]      -0.00018578 [kJ/mol]
      Exch-Ind20,r                  0.00000000 [mEh]       0.00000000 [kcal/mol]       0.00000000 [kJ/mol]
      delta HF,r (2)               -0.00003140 [mEh]      -0.00001971 [kcal/mol]      -0.00008245 [kJ/mol]

    Dispersion                     -0.00123885 [mEh]      -0.00077739 [kcal/mol]      -0.00325260 [kJ/mol]
      Disp20                       -0.00123885 [mEh]      -0.00077739 [kcal/mol]      -0.00325260 [kJ/mol]
      Exch-Disp20                   0.00000000 [mEh]       0.00000000 [kcal/mol]       0.00000000 [kJ/mol]
      Disp20 (SS)                  -0.00061942 [mEh]      -0.00038869 [kcal/mol]      -0.00162630 [kJ/mol]
      Disp20 (OS)                  -0.00061942 [mEh]      -0.00038869 [kcal/mol]      -0.00162630 [kJ/mol]
      Exch-Disp20 (SS)              0.00000000 [mEh]       0.00000000 [kcal/mol]       0.00000000 [kJ/mol]
      Exch-Disp20 (OS)              0.00000000 [mEh]       0.00000000 [kcal/mol]       0.00000000 [kJ/mol]

  Total HF                          0.01465865 [mEh]       0.00919844 [kcal/mol]       0.03848628 [kJ/mol]
  Total SAPT0                       0.01341980 [mEh]       0.00842105 [kcal/mol]       0.03523368 [kJ/mol]

  Special recipe for scaled SAPT0 (see Manual):
    Electrostatics sSAPT0           0.01476081 [mEh]       0.00926255 [kcal/mol]       0.03875450 [kJ/mol]
    Exchange sSAPT0                 0.00000000 [mEh]       0.00000000 [kcal/mol]       0.00000000 [kJ/mol]
    Induction sSAPT0               -0.00010216 [mEh]      -0.00006411 [kcal/mol]      -0.00026822 [kJ/mol]
    Dispersion sSAPT0              -0.00123885 [mEh]      -0.00077739 [kcal/mol]      -0.00325260 [kJ/mol]
  Total sSAPT0                      0.01341980 [mEh]       0.00842105 [kcal/mol]       0.03523368 [kJ/mol]
  --------------------------------------------------------------------------------------------------------

*** Psi4 exiting successfully. Buy a developer a beer!
