                               Psi4 1.4rc3

  ==> Input File <==

--------------------------------------------------------------------------
# PSI4 file produced by CrystaLattE

# Generated from:               acetic_acid.xyz
# Psithon input for N-mer:      2mer-0+65
# Number of atoms per monomer:  [8, 8]
# Number of replicas:           2
# COM priority:                 1.477452761671e-04
# Minimum COM separations:      10.010
# Separation priority:          2.590461241908e-04
# Minimum monomer separations:  8.301
# Cutoff priority:              1.651338596663e-05
# Nuclear repulsion energy:     296.8604517145335

memory 7 GB

molecule Dimer_0_65 {
  O           -5.53102237       2.93940290       1.97762624
  O           -2.40708886       0.90817734       0.04905909
  H           -0.50304887       1.37579205       4.63880908
  H            0.00000000       4.25104285       3.09072238
  H           -2.38948215       4.01916779       5.40195041
  H           -3.74771411       0.47147930      -1.21557512
  C           -1.41859782       2.98500500       3.84405190
  C           -3.32263781       2.28628814       1.91221413
--
  O           -5.53102237     -12.51893475      12.87964524
  O           -2.40708886     -14.55016031      10.95107808
  H           -0.50304887     -14.08254560      15.54082807
  H            0.00000000     -11.20729480      13.99274137
  H           -2.38948215     -11.43916986      16.30396940
  H           -3.74771411     -14.98685835       9.68644387
  C           -1.41859782     -12.47333265      14.74607089
  C           -3.32263781     -13.17204951      12.81423312
units = au
no_com
no_reorient
}

set {
  e_convergence 10
  d_convergence 10
  scf_type df
  mp2_type df
  cc_type df
  freeze_core true
}

energy('sapt0/aug-cc-pvdz')

--------------------------------------------------------------------------

  //              Dimer HF             //
    Molecular point group: c1
  Charge       = 0
  Multiplicity = 1
  Basis Set: AUG-CC-PVDZ
    Blend: AUG-CC-PVDZ
  Basis Set: (AUG-CC-PVDZ AUX)
    Blend: AUG-CC-PVDZ-JKFIT
  @DF-RHF Final Energy:  -455.68805864190392
    Total Energy =                       -455.6880586419039219
  //            Monomer A HF           //
    Molecular point group: c1
  Multiplicity = 1
  Basis Set: AUG-CC-PVDZ
    Blend: AUG-CC-PVDZ
  Basis Set: (AUG-CC-PVDZ AUX)
    Blend: AUG-CC-PVDZ-JKFIT
  @DF-RHF Final Energy:  -227.84408698094205
    Total Energy =                       -227.8440869809420519
  //            Monomer B HF           //
    Molecular point group: c1

    Geometry (in Bohr), charge = 0, multiplicity = 1:

       Center              X                  Y                   Z               Mass
    ------------   -----------------  -----------------  -----------------  -----------------
      Gh(O)          -5.531022370000     2.939402900000     1.977626240000    15.994914619570
      Gh(O)          -2.407088860000     0.908177340000     0.049059090000    15.994914619570
      Gh(H)          -0.503048870000     1.375792050000     4.638809080000     1.007825032230
      Gh(H)           0.000000000000     4.251042850000     3.090722380000     1.007825032230
      Gh(H)          -2.389482150000     4.019167790000     5.401950410000     1.007825032230
      Gh(H)          -3.747714110000     0.471479300000    -1.215575120000     1.007825032230
      Gh(C)          -1.418597820000     2.985005000000     3.844051900000    12.000000000000
      Gh(C)          -3.322637810000     2.286288140000     1.912214130000    12.000000000000
         O           -5.531022370000   -12.518934750000    12.879645240000    15.994914619570
         O           -2.407088860000   -14.550160310000    10.951078080000    15.994914619570
         H           -0.503048870000   -14.082545600000    15.540828070000     1.007825032230
         H            0.000000000000   -11.207294800000    13.992741370000     1.007825032230
         H           -2.389482150000   -11.439169860000    16.303969400000     1.007825032230
         H           -3.747714110000   -14.986858350000     9.686443870000     1.007825032230
         C           -1.418597820000   -12.473332650000    14.746070890000    12.000000000000
         C           -3.322637810000   -13.172049510000    12.814233120000    12.000000000000

  Charge       = 0
  Multiplicity = 1
  Basis Set: AUG-CC-PVDZ
    Blend: AUG-CC-PVDZ
  Basis Set: (AUG-CC-PVDZ AUX)
    Blend: AUG-CC-PVDZ-JKFIT

    Orbital Energies [Eh]
    ---------------------

    Doubly Occupied:

       1A    -20.629476     2A    -20.552804     3A    -11.396108
       4A    -11.250978     5A     -1.475852     6A     -1.357486
       7A     -1.033000     8A     -0.837930     9A     -0.703065
      10A     -0.688465    11A     -0.657749    12A     -0.576538
      13A     -0.569697    14A     -0.561403    15A     -0.475343
      16A     -0.452434

  @DF-RHF Final Energy:  -227.84408661223614

   => Energetics <=

    Nuclear Repulsion Energy =            121.7484302024618898
    One-Electron Energy =                -552.7483734910844078
    Two-Electron Energy =                 203.1558566763863496
    Total Energy =                       -227.8440866122361399

  Dipole Moment: [D]
     X:     2.1047      Y:    -0.7190      Z:    -0.2115     Total:     2.2342

    SAPT Results
  --------------------------------------------------------------------------------------------------------
    Electrostatics                  0.11568178 [mEh]       0.07259141 [kcal/mol]       0.30372247 [kJ/mol]
      Elst10,r                      0.11568178 [mEh]       0.07259141 [kcal/mol]       0.30372247 [kJ/mol]

    Exchange                        0.00000016 [mEh]       0.00000010 [kcal/mol]       0.00000042 [kJ/mol]
      Exch10                        0.00000016 [mEh]       0.00000010 [kcal/mol]       0.00000042 [kJ/mol]
      Exch10(S^2)                   0.00000016 [mEh]       0.00000010 [kcal/mol]       0.00000042 [kJ/mol]

    Induction                      -0.00073067 [mEh]      -0.00045850 [kcal/mol]      -0.00191836 [kJ/mol]
      Ind20,r                      -0.00064074 [mEh]      -0.00040207 [kcal/mol]      -0.00168226 [kJ/mol]
      Exch-Ind20,r                  0.00000093 [mEh]       0.00000058 [kcal/mol]       0.00000244 [kJ/mol]
      delta HF,r (2)               -0.00009086 [mEh]      -0.00005701 [kcal/mol]      -0.00023854 [kJ/mol]

    Dispersion                     -0.01083030 [mEh]      -0.00679611 [kcal/mol]      -0.02843494 [kJ/mol]
      Disp20                       -0.01083041 [mEh]      -0.00679618 [kcal/mol]      -0.02843523 [kJ/mol]
      Exch-Disp20                   0.00000011 [mEh]       0.00000007 [kcal/mol]       0.00000028 [kJ/mol]
      Disp20 (SS)                  -0.00541520 [mEh]      -0.00339809 [kcal/mol]      -0.01421761 [kJ/mol]
      Disp20 (OS)                  -0.00541520 [mEh]      -0.00339809 [kcal/mol]      -0.01421761 [kJ/mol]
      Exch-Disp20 (SS)              0.00000009 [mEh]       0.00000006 [kcal/mol]       0.00000024 [kJ/mol]
      Exch-Disp20 (OS)              0.00000002 [mEh]       0.00000001 [kcal/mol]       0.00000004 [kJ/mol]

  Total HF                          0.11495127 [mEh]       0.07213301 [kcal/mol]       0.30180453 [kJ/mol]
  Total SAPT0                       0.10412098 [mEh]       0.06533690 [kcal/mol]       0.27336958 [kJ/mol]

  Special recipe for scaled SAPT0 (see Manual):
    Electrostatics sSAPT0           0.11568178 [mEh]       0.07259141 [kcal/mol]       0.30372247 [kJ/mol]
    Exchange sSAPT0                 0.00000016 [mEh]       0.00000010 [kcal/mol]       0.00000042 [kJ/mol]
    Induction sSAPT0               -0.00073067 [mEh]      -0.00045850 [kcal/mol]      -0.00191836 [kJ/mol]
    Dispersion sSAPT0              -0.01083030 [mEh]      -0.00679611 [kcal/mol]      -0.02843494 [kJ/mol]
  Total sSAPT0                      0.10412098 [mEh]       0.06533690 [kcal/mol]       0.27336958 [kJ/mol]
  --------------------------------------------------------------------------------------------------------

*** Psi4 exiting successfully. Buy a developer a beer!
