                               Psi4 1.4rc3

  ==> Input File <==

--------------------------------------------------------------------------
# PSI4 file produced by CrystaLattE

# Generated from:               acetic_acid.xyz
# Psithon input for N-mer:      2mer-0+571
# Number of atoms per monomer:  [8, 8]
# Number of replicas:           2
# COM priority:                 1.352854510849e-05
# Minimum COM separations:      22.208
# Separation priority:          2.115233103907e-05
# Minimum monomer separations:  19.134
# Cutoff priority:              5.849844379232e-07
# Nuclear repulsion energy:     267.8701409025374

memory 7 GB

molecule Dimer_0_571 {
  O           -5.53102237       2.93940290       1.97762624
  O           -2.40708886       0.90817734       0.04905909
  H           -0.50304887       1.37579205       4.63880908
  H            0.00000000       4.25104285       3.09072238
  H           -2.38948215       4.01916779       5.40195041
  H           -3.74771411       0.47147930      -1.21557512
  C           -1.41859782       2.98500500       3.84405190
  C           -3.32263781       2.28628814       1.91221413
--
  O          -17.96136005       4.94434930     -36.17944022
  O          -21.08529356       6.97557487     -38.10800738
  H          -22.98933354       6.50796015     -33.51825739
  H          -23.49238242       3.63270935     -35.06634408
  H          -21.10290027       3.86458441     -32.75511606
  H          -19.74466831       7.41227290     -39.37264158
  C          -22.07378459       4.89874720     -34.31301457
  C          -20.16974460       5.59746406     -36.24485234
units = au
no_com
no_reorient
}

set {
  e_convergence 10
  d_convergence 10
  scf_type df
  mp2_type df
  cc_type df
  freeze_core true
}

energy('sapt0/aug-cc-pvdz')

--------------------------------------------------------------------------

  //              Dimer HF             //
    Molecular point group: c1
  Charge       = 0
  Multiplicity = 1
  Basis Set: AUG-CC-PVDZ
    Blend: AUG-CC-PVDZ
  Basis Set: (AUG-CC-PVDZ AUX)
    Blend: AUG-CC-PVDZ-JKFIT
  @DF-RHF Final Energy:  -455.68818338643291
    Total Energy =                       -455.6881833864329110
  //            Monomer A HF           //
    Molecular point group: c1
  Multiplicity = 1
  Basis Set: AUG-CC-PVDZ
    Blend: AUG-CC-PVDZ
  Basis Set: (AUG-CC-PVDZ AUX)
    Blend: AUG-CC-PVDZ-JKFIT
  @DF-RHF Final Energy:  -227.84408589681590
    Total Energy =                       -227.8440858968158977
  //            Monomer B HF           //
    Molecular point group: c1

    Geometry (in Bohr), charge = 0, multiplicity = 1:

       Center              X                  Y                   Z               Mass
    ------------   -----------------  -----------------  -----------------  -----------------
      Gh(O)          -5.531022370000     2.939402900000     1.977626240000    15.994914619570
      Gh(O)          -2.407088860000     0.908177340000     0.049059090000    15.994914619570
      Gh(H)          -0.503048870000     1.375792050000     4.638809080000     1.007825032230
      Gh(H)           0.000000000000     4.251042850000     3.090722380000     1.007825032230
      Gh(H)          -2.389482150000     4.019167790000     5.401950410000     1.007825032230
      Gh(H)          -3.747714110000     0.471479300000    -1.215575120000     1.007825032230
      Gh(C)          -1.418597820000     2.985005000000     3.844051900000    12.000000000000
      Gh(C)          -3.322637810000     2.286288140000     1.912214130000    12.000000000000
         O          -17.961360050000     4.944349300000   -36.179440220000    15.994914619570
         O          -21.085293560000     6.975574870000   -38.108007380000    15.994914619570
         H          -22.989333540000     6.507960150000   -33.518257390000     1.007825032230
         H          -23.492382420000     3.632709350000   -35.066344080000     1.007825032230
         H          -21.102900270000     3.864584410000   -32.755116060000     1.007825032230
         H          -19.744668310000     7.412272900000   -39.372641580000     1.007825032230
         C          -22.073784590000     4.898747200000   -34.313014570000    12.000000000000
         C          -20.169744600000     5.597464060000   -36.244852340000    12.000000000000

  Charge       = 0
  Multiplicity = 1
  Basis Set: AUG-CC-PVDZ
    Blend: AUG-CC-PVDZ
  Basis Set: (AUG-CC-PVDZ AUX)
    Blend: AUG-CC-PVDZ-JKFIT

    Orbital Energies [Eh]
    ---------------------

    Doubly Occupied:

       1A    -20.629476     2A    -20.552804     3A    -11.396108
       4A    -11.250979     5A     -1.475853     6A     -1.357486
       7A     -1.032999     8A     -0.837930     9A     -0.703065
      10A     -0.688465    11A     -0.657749    12A     -0.576538
      13A     -0.569697    14A     -0.561403    15A     -0.475343
      16A     -0.452434

  @DF-RHF Final Energy:  -227.84408589674354

   => Energetics <=

    Nuclear Repulsion Energy =            121.7484302412195944
    One-Electron Energy =                -552.7483714906895784
    Two-Electron Energy =                 203.1558553527264621
    Total Energy =                       -227.8440858967435361

  Dipole Moment: [D]
     X:    -2.1048      Y:     0.7191      Z:    -0.2116     Total:     2.2342

    SAPT Results
  --------------------------------------------------------------------------------------------------------
    Electrostatics                 -0.01157138 [mEh]      -0.00726115 [kcal/mol]      -0.03038064 [kJ/mol]
      Elst10,r                     -0.01157138 [mEh]      -0.00726115 [kcal/mol]      -0.03038064 [kJ/mol]

    Exchange                       -0.00000000 [mEh]      -0.00000000 [kcal/mol]      -0.00000000 [kJ/mol]
      Exch10                       -0.00000000 [mEh]      -0.00000000 [kcal/mol]      -0.00000000 [kJ/mol]
      Exch10(S^2)                  -0.00000000 [mEh]      -0.00000000 [kcal/mol]      -0.00000000 [kJ/mol]

    Induction                      -0.00002150 [mEh]      -0.00001349 [kcal/mol]      -0.00005644 [kJ/mol]
      Ind20,r                      -0.00000818 [mEh]      -0.00000514 [kcal/mol]      -0.00002149 [kJ/mol]
      Exch-Ind20,r                  0.00000000 [mEh]       0.00000000 [kcal/mol]       0.00000000 [kJ/mol]
      delta HF,r (2)               -0.00001331 [mEh]      -0.00000835 [kcal/mol]      -0.00003496 [kJ/mol]

    Dispersion                     -0.00010380 [mEh]      -0.00006513 [kcal/mol]      -0.00027252 [kJ/mol]
      Disp20                       -0.00010380 [mEh]      -0.00006513 [kcal/mol]      -0.00027252 [kJ/mol]
      Exch-Disp20                   0.00000000 [mEh]       0.00000000 [kcal/mol]       0.00000000 [kJ/mol]
      Disp20 (SS)                  -0.00005190 [mEh]      -0.00003257 [kcal/mol]      -0.00013626 [kJ/mol]
      Disp20 (OS)                  -0.00005190 [mEh]      -0.00003257 [kcal/mol]      -0.00013626 [kJ/mol]
      Exch-Disp20 (SS)              0.00000000 [mEh]       0.00000000 [kcal/mol]       0.00000000 [kJ/mol]
      Exch-Disp20 (OS)              0.00000000 [mEh]       0.00000000 [kcal/mol]       0.00000000 [kJ/mol]

  Total HF                         -0.01159287 [mEh]      -0.00727464 [kcal/mol]      -0.03043709 [kJ/mol]
  Total SAPT0                      -0.01169667 [mEh]      -0.00733977 [kcal/mol]      -0.03070960 [kJ/mol]

  Special recipe for scaled SAPT0 (see Manual):
    Electrostatics sSAPT0          -0.01157138 [mEh]      -0.00726115 [kcal/mol]      -0.03038064 [kJ/mol]
    Exchange sSAPT0                -0.00000000 [mEh]      -0.00000000 [kcal/mol]      -0.00000000 [kJ/mol]
    Induction sSAPT0               -0.00002150 [mEh]      -0.00001349 [kcal/mol]      -0.00005644 [kJ/mol]
    Dispersion sSAPT0              -0.00010380 [mEh]      -0.00006513 [kcal/mol]      -0.00027252 [kJ/mol]
  Total sSAPT0                     -0.01169667 [mEh]      -0.00733977 [kcal/mol]      -0.03070960 [kJ/mol]
  --------------------------------------------------------------------------------------------------------

*** Psi4 exiting successfully. Buy a developer a beer!
