                               Psi4 1.4rc3

  ==> Input File <==

--------------------------------------------------------------------------
# PSI4 file produced by CrystaLattE

# Generated from:               acetic_acid.xyz
# Psithon input for N-mer:      2mer-0+301
# Number of atoms per monomer:  [8, 8]
# Number of replicas:           2
# COM priority:                 2.228672892686e-05
# Minimum COM separations:      18.804
# Separation priority:          2.930287144640e-05
# Minimum monomer separations:  17.164
# Cutoff priority:              9.034003193639e-07
# Nuclear repulsion energy:     272.23231012417216

memory 7 GB

molecule Dimer_0_301 {
  O           -5.53102237       2.93940290       1.97762624
  O           -2.40708886       0.90817734       0.04905909
  H           -0.50304887       1.37579205       4.63880908
  H            0.00000000       4.25104285       3.09072238
  H           -2.38948215       4.01916779       5.40195041
  H           -3.74771411       0.47147930      -1.21557512
  C           -1.41859782       2.98500500       3.84405190
  C           -3.32263781       2.28628814       1.91221413
--
  O            7.04519948     -29.83691042      -8.92439275
  O           10.16913299     -27.80568485     -10.85295990
  H           12.07317298     -28.27329956      -6.26320991
  H           12.57622185     -31.14855037      -7.81129661
  H           10.18673970     -30.91667530      -5.50006858
  H            8.82850774     -27.36898681     -12.11759411
  C           11.15762403     -29.88251251      -7.05796709
  C            9.25358404     -29.18379565      -8.98980486
units = au
no_com
no_reorient
}

set {
  e_convergence 10
  d_convergence 10
  scf_type df
  mp2_type df
  cc_type df
  freeze_core true
}

energy('sapt0/aug-cc-pvdz')

--------------------------------------------------------------------------

  //              Dimer HF             //
    Molecular point group: c1
  Charge       = 0
  Multiplicity = 1
  Basis Set: AUG-CC-PVDZ
    Blend: AUG-CC-PVDZ
  Basis Set: (AUG-CC-PVDZ AUX)
    Blend: AUG-CC-PVDZ-JKFIT
  @DF-RHF Final Energy:  -455.68816489388564
    Total Energy =                       -455.6881648938856415
  //            Monomer A HF           //
    Molecular point group: c1
  Multiplicity = 1
  Basis Set: AUG-CC-PVDZ
    Blend: AUG-CC-PVDZ
  Basis Set: (AUG-CC-PVDZ AUX)
    Blend: AUG-CC-PVDZ-JKFIT
  @DF-RHF Final Energy:  -227.84408589578237
    Total Energy =                       -227.8440858957823707
  //            Monomer B HF           //
    Molecular point group: c1

    Geometry (in Bohr), charge = 0, multiplicity = 1:

       Center              X                  Y                   Z               Mass
    ------------   -----------------  -----------------  -----------------  -----------------
      Gh(O)          -5.531022370000     2.939402900000     1.977626240000    15.994914619570
      Gh(O)          -2.407088860000     0.908177340000     0.049059090000    15.994914619570
      Gh(H)          -0.503048870000     1.375792050000     4.638809080000     1.007825032230
      Gh(H)           0.000000000000     4.251042850000     3.090722380000     1.007825032230
      Gh(H)          -2.389482150000     4.019167790000     5.401950410000     1.007825032230
      Gh(H)          -3.747714110000     0.471479300000    -1.215575120000     1.007825032230
      Gh(C)          -1.418597820000     2.985005000000     3.844051900000    12.000000000000
      Gh(C)          -3.322637810000     2.286288140000     1.912214130000    12.000000000000
         O            7.045199480000   -29.836910420000    -8.924392750000    15.994914619570
         O           10.169132990000   -27.805684850000   -10.852959900000    15.994914619570
         H           12.073172980000   -28.273299560000    -6.263209910000     1.007825032230
         H           12.576221850000   -31.148550370000    -7.811296610000     1.007825032230
         H           10.186739700000   -30.916675300000    -5.500068580000     1.007825032230
         H            8.828507740000   -27.368986810000   -12.117594110000     1.007825032230
         C           11.157624030000   -29.882512510000    -7.057967090000    12.000000000000
         C            9.253584040000   -29.183795650000    -8.989804860000    12.000000000000

  Charge       = 0
  Multiplicity = 1
  Basis Set: AUG-CC-PVDZ
    Blend: AUG-CC-PVDZ
  Basis Set: (AUG-CC-PVDZ AUX)
    Blend: AUG-CC-PVDZ-JKFIT

    Orbital Energies [Eh]
    ---------------------

    Doubly Occupied:

       1A    -20.629476     2A    -20.552804     3A    -11.396108
       4A    -11.250979     5A     -1.475853     6A     -1.357486
       7A     -1.032999     8A     -0.837930     9A     -0.703065
      10A     -0.688465    11A     -0.657749    12A     -0.576538
      13A     -0.569697    14A     -0.561403    15A     -0.475343
      16A     -0.452434

  @DF-RHF Final Energy:  -227.84408589489055

   => Energetics <=

    Nuclear Repulsion Energy =            121.7484301522182051
    One-Electron Energy =                -552.7483713205552931
    Two-Electron Energy =                 203.1558552734465479
    Total Energy =                       -227.8440858948905543

  Dipole Moment: [D]
     X:     2.1048      Y:     0.7191      Z:    -0.2116     Total:     2.2342

    SAPT Results
  --------------------------------------------------------------------------------------------------------
    Electrostatics                  0.00692652 [mEh]       0.00434645 [kcal/mol]       0.01818557 [kJ/mol]
      Elst10,r                      0.00692652 [mEh]       0.00434645 [kcal/mol]       0.01818557 [kJ/mol]

    Exchange                       -0.00000000 [mEh]      -0.00000000 [kcal/mol]      -0.00000000 [kJ/mol]
      Exch10                       -0.00000000 [mEh]      -0.00000000 [kcal/mol]      -0.00000000 [kJ/mol]
      Exch10(S^2)                  -0.00000000 [mEh]      -0.00000000 [kcal/mol]      -0.00000000 [kJ/mol]

    Induction                      -0.00002973 [mEh]      -0.00001866 [kcal/mol]      -0.00007805 [kJ/mol]
      Ind20,r                      -0.00001190 [mEh]      -0.00000747 [kcal/mol]      -0.00003125 [kJ/mol]
      Exch-Ind20,r                  0.00000000 [mEh]       0.00000000 [kcal/mol]       0.00000000 [kJ/mol]
      delta HF,r (2)               -0.00001783 [mEh]      -0.00001119 [kcal/mol]      -0.00004680 [kJ/mol]

    Dispersion                     -0.00025470 [mEh]      -0.00015983 [kcal/mol]      -0.00066871 [kJ/mol]
      Disp20                       -0.00025470 [mEh]      -0.00015983 [kcal/mol]      -0.00066871 [kJ/mol]
      Exch-Disp20                   0.00000000 [mEh]       0.00000000 [kcal/mol]       0.00000000 [kJ/mol]
      Disp20 (SS)                  -0.00012735 [mEh]      -0.00007991 [kcal/mol]      -0.00033436 [kJ/mol]
      Disp20 (OS)                  -0.00012735 [mEh]      -0.00007991 [kcal/mol]      -0.00033436 [kJ/mol]
      Exch-Disp20 (SS)              0.00000000 [mEh]       0.00000000 [kcal/mol]       0.00000000 [kJ/mol]
      Exch-Disp20 (OS)              0.00000000 [mEh]       0.00000000 [kcal/mol]       0.00000000 [kJ/mol]

  Total HF                          0.00689679 [mEh]       0.00432780 [kcal/mol]       0.01810751 [kJ/mol]
  Total SAPT0                       0.00664209 [mEh]       0.00416797 [kcal/mol]       0.01743880 [kJ/mol]

  Special recipe for scaled SAPT0 (see Manual):
    Electrostatics sSAPT0           0.00692652 [mEh]       0.00434645 [kcal/mol]       0.01818557 [kJ/mol]
    Exchange sSAPT0                -0.00000000 [mEh]      -0.00000000 [kcal/mol]      -0.00000000 [kJ/mol]
    Induction sSAPT0               -0.00002973 [mEh]      -0.00001866 [kcal/mol]      -0.00007805 [kJ/mol]
    Dispersion sSAPT0              -0.00025470 [mEh]      -0.00015983 [kcal/mol]      -0.00066871 [kJ/mol]
  Total sSAPT0                      0.00664209 [mEh]       0.00416797 [kcal/mol]       0.01743880 [kJ/mol]
  --------------------------------------------------------------------------------------------------------

*** Psi4 exiting successfully. Buy a developer a beer!
