                               Psi4 1.4rc3

  ==> Input File <==

--------------------------------------------------------------------------
# PSI4 file produced by CrystaLattE

# Generated from:               acetic_acid.xyz
# Psithon input for N-mer:      2mer-0+2
# Number of atoms per monomer:  [8, 8]
# Number of replicas:           2
# COM priority:                 9.250538276413e-04
# Minimum COM separations:      5.431
# Separation priority:          7.997347477957e-03
# Minimum monomer separations:  2.646
# Cutoff priority:              1.599292699880e-03
# Nuclear repulsion energy:     345.8279065033429

memory 7 GB

molecule Dimer_0_2 {
  O           -5.53102237       2.93940290       1.97762624
  O           -2.40708886       0.90817734       0.04905909
  H           -0.50304887       1.37579205       4.63880908
  H            0.00000000       4.25104285       3.09072238
  H           -2.38948215       4.01916779       5.40195041
  H           -3.74771411       0.47147930      -1.21557512
  C           -1.41859782       2.98500500       3.84405190
  C           -3.32263781       2.28628814       1.91221413
--
  O            7.19108365       4.94434930      -3.47338325
  O            4.06715015       6.97557487      -5.40195041
  H            2.16311016       6.50796015      -0.81220041
  H            1.66006128       3.63270935      -2.36028711
  H            4.04954344       3.86458441      -0.04905909
  H            5.40777540       7.41227290      -6.66658461
  C            3.07865911       4.89874720      -1.60695760
  C            4.98269910       5.59746406      -3.53879536
units = au
no_com
no_reorient
}

set {
  e_convergence 10
  d_convergence 10
  scf_type df
  mp2_type df
  cc_type df
  freeze_core true
}

energy('sapt0/aug-cc-pvdz')

--------------------------------------------------------------------------

  //              Dimer HF             //
    Molecular point group: c1
  Charge       = 0
  Multiplicity = 1
  Basis Set: AUG-CC-PVDZ
    Blend: AUG-CC-PVDZ
  Basis Set: (AUG-CC-PVDZ AUX)
    Blend: AUG-CC-PVDZ-JKFIT
  @DF-RHF Final Energy:  -455.68750622646490
    Total Energy =                       -455.6875062264649046
  //            Monomer A HF           //
    Molecular point group: c1
  Multiplicity = 1
  Basis Set: AUG-CC-PVDZ
    Blend: AUG-CC-PVDZ
  Basis Set: (AUG-CC-PVDZ AUX)
    Blend: AUG-CC-PVDZ-JKFIT
  @DF-RHF Final Energy:  -227.84434392416094
    Total Energy =                       -227.8443439241609383
  //            Monomer B HF           //
    Molecular point group: c1

    Geometry (in Bohr), charge = 0, multiplicity = 1:

       Center              X                  Y                   Z               Mass
    ------------   -----------------  -----------------  -----------------  -----------------
      Gh(O)          -5.531022370000     2.939402900000     1.977626240000    15.994914619570
      Gh(O)          -2.407088860000     0.908177340000     0.049059090000    15.994914619570
      Gh(H)          -0.503048870000     1.375792050000     4.638809080000     1.007825032230
      Gh(H)           0.000000000000     4.251042850000     3.090722380000     1.007825032230
      Gh(H)          -2.389482150000     4.019167790000     5.401950410000     1.007825032230
      Gh(H)          -3.747714110000     0.471479300000    -1.215575120000     1.007825032230
      Gh(C)          -1.418597820000     2.985005000000     3.844051900000    12.000000000000
      Gh(C)          -3.322637810000     2.286288140000     1.912214130000    12.000000000000
         O            7.191083650000     4.944349300000    -3.473383250000    15.994914619570
         O            4.067150150000     6.975574870000    -5.401950410000    15.994914619570
         H            2.163110160000     6.507960150000    -0.812200410000     1.007825032230
         H            1.660061280000     3.632709350000    -2.360287110000     1.007825032230
         H            4.049543440000     3.864584410000    -0.049059090000     1.007825032230
         H            5.407775400000     7.412272900000    -6.666584610000     1.007825032230
         C            3.078659110000     4.898747200000    -1.606957600000    12.000000000000
         C            4.982699100000     5.597464060000    -3.538795360000    12.000000000000

  Charge       = 0
  Multiplicity = 1
  Basis Set: AUG-CC-PVDZ
    Blend: AUG-CC-PVDZ
  Basis Set: (AUG-CC-PVDZ AUX)
    Blend: AUG-CC-PVDZ-JKFIT

    Orbital Energies [Eh]
    ---------------------

    Doubly Occupied:

       1A    -20.629469     2A    -20.552776     3A    -11.395985
       4A    -11.250764     5A     -1.475814     6A     -1.357448
       7A     -1.032965     8A     -0.837931     9A     -0.703033
      10A     -0.688435    11A     -0.657723    12A     -0.576511
      13A     -0.569681    14A     -0.561385    15A     -0.475313
      16A     -0.452402

  @DF-RHF Final Energy:  -227.84429241963417

   => Energetics <=

    Nuclear Repulsion Energy =            121.7484302513229864
    One-Electron Energy =                -552.7501747793670575
    Two-Electron Energy =                 203.1574521084098990
    Total Energy =                       -227.8442924196341721

  Dipole Moment: [D]
     X:    -2.1056      Y:     0.7196      Z:    -0.2119     Total:     2.2352

    SAPT Results
  --------------------------------------------------------------------------------------------------------
    Electrostatics                 -0.41789977 [mEh]      -0.26223607 [kcal/mol]      -1.09719570 [kJ/mol]
      Elst10,r                     -0.41789977 [mEh]      -0.26223607 [kcal/mol]      -1.09719570 [kJ/mol]

    Exchange                        1.79128110 [mEh]       1.12404586 [kcal/mol]       4.70300789 [kJ/mol]
      Exch10                        1.79128110 [mEh]       1.12404586 [kcal/mol]       4.70300789 [kJ/mol]
      Exch10(S^2)                   1.78994360 [mEh]       1.12320657 [kcal/mol]       4.69949628 [kJ/mol]

    Induction                      -0.24326400 [mEh]      -0.15265047 [kcal/mol]      -0.63868955 [kJ/mol]
      Ind20,r                      -0.39647905 [mEh]      -0.24879436 [kcal/mol]      -1.04095561 [kJ/mol]
      Exch-Ind20,r                  0.25636624 [mEh]       0.16087224 [kcal/mol]       0.67308947 [kJ/mol]
      delta HF,r (2)               -0.10315119 [mEh]      -0.06472835 [kcal/mol]      -0.27082341 [kJ/mol]

    Dispersion                     -2.30498005 [mEh]      -1.44639682 [kcal/mol]      -6.05172428 [kJ/mol]
      Disp20                       -2.46235912 [mEh]      -1.54515368 [kcal/mol]      -6.46492299 [kJ/mol]
      Exch-Disp20                   0.15737908 [mEh]       0.09875686 [kcal/mol]       0.41319871 [kJ/mol]
      Disp20 (SS)                  -1.23117956 [mEh]      -0.77257684 [kcal/mol]      -3.23246149 [kJ/mol]
      Disp20 (OS)                  -1.23117956 [mEh]      -0.77257684 [kcal/mol]      -3.23246149 [kJ/mol]
      Exch-Disp20 (SS)              0.10404783 [mEh]       0.06529100 [kcal/mol]       0.27317755 [kJ/mol]
      Exch-Disp20 (OS)              0.05333124 [mEh]       0.03346586 [kcal/mol]       0.14002116 [kJ/mol]

  Total HF                          1.13011733 [mEh]       0.70915933 [kcal/mol]       2.96712264 [kJ/mol]
  Total SAPT0                      -1.17486272 [mEh]      -0.73723748 [kcal/mol]      -3.08460164 [kJ/mol]

  Special recipe for scaled SAPT0 (see Manual):
    Electrostatics sSAPT0          -0.41789977 [mEh]      -0.26223607 [kcal/mol]      -1.09719570 [kJ/mol]
    Exchange sSAPT0                 1.79128110 [mEh]       1.12404586 [kcal/mol]       4.70300789 [kJ/mol]
    Induction sSAPT0               -0.24268888 [mEh]      -0.15228957 [kcal/mol]      -0.63717956 [kJ/mol]
    Dispersion sSAPT0              -2.30462699 [mEh]      -1.44617527 [kcal/mol]      -6.05079732 [kJ/mol]
  Total sSAPT0                     -1.17393453 [mEh]      -0.73665504 [kcal/mol]      -3.08216469 [kJ/mol]
  --------------------------------------------------------------------------------------------------------

*** Psi4 exiting successfully. Buy a developer a beer!
