                               Psi4 1.4rc3

  ==> Input File <==

--------------------------------------------------------------------------
# PSI4 file produced by CrystaLattE

# Generated from:               acetic_acid.xyz
# Psithon input for N-mer:      2mer-0+33
# Number of atoms per monomer:  [8, 8]
# Number of replicas:           2
# COM priority:                 1.564674268747e-04
# Minimum COM separations:      9.820
# Separation priority:          5.820969206413e-04
# Minimum monomer separations:  6.338
# Cutoff priority:              4.860270071272e-05
# Nuclear repulsion energy:     298.94861086119346

memory 7 GB

molecule Dimer_0_33 {
  O           -5.53102237       2.93940290       1.97762624
  O           -2.40708886       0.90817734       0.04905909
  H           -0.50304887       1.37579205       4.63880908
  H            0.00000000       4.25104285       3.09072238
  H           -2.38948215       4.01916779       5.40195041
  H           -3.74771411       0.47147930      -1.21557512
  C           -1.41859782       2.98500500       3.84405190
  C           -3.32263781       2.28628814       1.91221413
--
  O            7.04519948      -6.64940394      12.87964524
  O           10.16913299      -4.61817837      10.95107808
  H           12.07317298      -5.08579309      15.54082807
  H           12.57622185      -7.96104389      13.99274137
  H           10.18673970      -7.72916883      16.30396940
  H            8.82850774      -4.18148033       9.68644387
  C           11.15762403      -6.69500604      14.74607089
  C            9.25358404      -5.99628918      12.81423312
units = au
no_com
no_reorient
}

set {
  e_convergence 10
  d_convergence 10
  scf_type df
  mp2_type df
  cc_type df
  freeze_core true
}

energy('sapt0/aug-cc-pvdz')

--------------------------------------------------------------------------

  //              Dimer HF             //
    Molecular point group: c1
  Charge       = 0
  Multiplicity = 1
  Basis Set: AUG-CC-PVDZ
    Blend: AUG-CC-PVDZ
  Basis Set: (AUG-CC-PVDZ AUX)
    Blend: AUG-CC-PVDZ-JKFIT
  @DF-RHF Final Energy:  -455.68811652435397
    Total Energy =                       -455.6881165243539726
  //            Monomer A HF           //
    Molecular point group: c1
  Multiplicity = 1
  Basis Set: AUG-CC-PVDZ
    Blend: AUG-CC-PVDZ
  Basis Set: (AUG-CC-PVDZ AUX)
    Blend: AUG-CC-PVDZ-JKFIT
  @DF-RHF Final Energy:  -227.84408985955417
    Total Energy =                       -227.8440898595541739
  //            Monomer B HF           //
    Molecular point group: c1

    Geometry (in Bohr), charge = 0, multiplicity = 1:

       Center              X                  Y                   Z               Mass
    ------------   -----------------  -----------------  -----------------  -----------------
      Gh(O)          -5.531022370000     2.939402900000     1.977626240000    15.994914619570
      Gh(O)          -2.407088860000     0.908177340000     0.049059090000    15.994914619570
      Gh(H)          -0.503048870000     1.375792050000     4.638809080000     1.007825032230
      Gh(H)           0.000000000000     4.251042850000     3.090722380000     1.007825032230
      Gh(H)          -2.389482150000     4.019167790000     5.401950410000     1.007825032230
      Gh(H)          -3.747714110000     0.471479300000    -1.215575120000     1.007825032230
      Gh(C)          -1.418597820000     2.985005000000     3.844051900000    12.000000000000
      Gh(C)          -3.322637810000     2.286288140000     1.912214130000    12.000000000000
         O            7.045199480000    -6.649403940000    12.879645240000    15.994914619570
         O           10.169132990000    -4.618178370000    10.951078080000    15.994914619570
         H           12.073172980000    -5.085793090000    15.540828070000     1.007825032230
         H           12.576221850000    -7.961043890000    13.992741370000     1.007825032230
         H           10.186739700000    -7.729168830000    16.303969400000     1.007825032230
         H            8.828507740000    -4.181480330000     9.686443870000     1.007825032230
         C           11.157624030000    -6.695006040000    14.746070890000    12.000000000000
         C            9.253584040000    -5.996289180000    12.814233120000    12.000000000000

  Charge       = 0
  Multiplicity = 1
  Basis Set: AUG-CC-PVDZ
    Blend: AUG-CC-PVDZ
  Basis Set: (AUG-CC-PVDZ AUX)
    Blend: AUG-CC-PVDZ-JKFIT

    Orbital Energies [Eh]
    ---------------------

    Doubly Occupied:

       1A    -20.629480     2A    -20.552805     3A    -11.396110
       4A    -11.250979     5A     -1.475852     6A     -1.357486
       7A     -1.033000     8A     -0.837930     9A     -0.703065
      10A     -0.688465    11A     -0.657748    12A     -0.576538
      13A     -0.569697    14A     -0.561403    15A     -0.475343
      16A     -0.452434

  @DF-RHF Final Energy:  -227.84408926561744

   => Energetics <=

    Nuclear Repulsion Energy =            121.7484301219125484
    One-Electron Energy =                -552.7483703697057535
    Two-Electron Energy =                 203.1558509821757923
    Total Energy =                       -227.8440892656174412

  Dipole Moment: [D]
     X:     2.1048      Y:     0.7191      Z:    -0.2116     Total:     2.2343

    SAPT Results
  --------------------------------------------------------------------------------------------------------
    Electrostatics                  0.06428750 [mEh]       0.04034101 [kcal/mol]       0.16878681 [kJ/mol]
      Elst10,r                      0.06428750 [mEh]       0.04034101 [kcal/mol]       0.16878681 [kJ/mol]

    Exchange                        0.00000023 [mEh]       0.00000015 [kcal/mol]       0.00000061 [kJ/mol]
      Exch10                        0.00000023 [mEh]       0.00000015 [kcal/mol]       0.00000061 [kJ/mol]
      Exch10(S^2)                   0.00000023 [mEh]       0.00000015 [kcal/mol]       0.00000061 [kJ/mol]

    Induction                      -0.00168691 [mEh]      -0.00105855 [kcal/mol]      -0.00442899 [kJ/mol]
      Ind20,r                      -0.00170742 [mEh]      -0.00107142 [kcal/mol]      -0.00448282 [kJ/mol]
      Exch-Ind20,r                  0.00000236 [mEh]       0.00000148 [kcal/mol]       0.00000621 [kJ/mol]
      delta HF,r (2)                0.00001814 [mEh]       0.00001138 [kcal/mol]       0.00004763 [kJ/mol]

    Dispersion                     -0.01939885 [mEh]      -0.01217296 [kcal/mol]      -0.05093167 [kJ/mol]
      Disp20                       -0.01939927 [mEh]      -0.01217323 [kcal/mol]      -0.05093278 [kJ/mol]
      Exch-Disp20                   0.00000042 [mEh]       0.00000027 [kcal/mol]       0.00000111 [kJ/mol]
      Disp20 (SS)                  -0.00969964 [mEh]      -0.00608661 [kcal/mol]      -0.02546639 [kJ/mol]
      Disp20 (OS)                  -0.00969964 [mEh]      -0.00608661 [kcal/mol]      -0.02546639 [kJ/mol]
      Exch-Disp20 (SS)              0.00000036 [mEh]       0.00000022 [kcal/mol]       0.00000094 [kJ/mol]
      Exch-Disp20 (OS)              0.00000007 [mEh]       0.00000004 [kcal/mol]       0.00000017 [kJ/mol]

  Total HF                          0.06260082 [mEh]       0.03928261 [kcal/mol]       0.16435842 [kJ/mol]
  Total SAPT0                       0.04320197 [mEh]       0.02710965 [kcal/mol]       0.11342676 [kJ/mol]

  Special recipe for scaled SAPT0 (see Manual):
    Electrostatics sSAPT0           0.06428750 [mEh]       0.04034101 [kcal/mol]       0.16878681 [kJ/mol]
    Exchange sSAPT0                 0.00000023 [mEh]       0.00000015 [kcal/mol]       0.00000061 [kJ/mol]
    Induction sSAPT0               -0.00168691 [mEh]      -0.00105855 [kcal/mol]      -0.00442899 [kJ/mol]
    Dispersion sSAPT0              -0.01939885 [mEh]      -0.01217296 [kcal/mol]      -0.05093167 [kJ/mol]
  Total sSAPT0                      0.04320197 [mEh]       0.02710965 [kcal/mol]       0.11342676 [kJ/mol]
  --------------------------------------------------------------------------------------------------------

*** Psi4 exiting successfully. Buy a developer a beer!
