                               Psi4 1.4rc3

  ==> Input File <==

--------------------------------------------------------------------------
# PSI4 file produced by CrystaLattE

# Generated from:               acetic_acid.xyz
# Psithon input for N-mer:      2mer-0+449
# Number of atoms per monomer:  [8, 8]
# Number of replicas:           2
# COM priority:                 1.570044100220e-05
# Minimum COM separations:      21.133
# Separation priority:          2.553257947085e-05
# Minimum monomer separations:  17.971
# Cutoff priority:              7.518414347444e-07
# Nuclear repulsion energy:     269.18796726864707

memory 7 GB

molecule Dimer_0_449 {
  O           -5.53102237       2.93940290       1.97762624
  O           -2.40708886       0.90817734       0.04905909
  H           -0.50304887       1.37579205       4.63880908
  H            0.00000000       4.25104285       3.09072238
  H           -2.38948215       4.01916779       5.40195041
  H           -3.74771411       0.47147930      -1.21557512
  C           -1.41859782       2.98500500       3.84405190
  C           -3.32263781       2.28628814       1.91221413
--
  O           32.19764318       8.80893371      12.87964524
  O           35.32157669      10.84015928      10.95107808
  H           37.22561668      10.37254456      15.54082807
  H           37.72866555       7.49729376      13.99274137
  H           35.33918340       7.72916883      16.30396940
  H           33.98095144      11.27685732       9.68644387
  C           36.31006773       8.76333161      14.74607089
  C           34.40602774       9.46204848      12.81423312
units = au
no_com
no_reorient
}

set {
  e_convergence 10
  d_convergence 10
  scf_type df
  mp2_type df
  cc_type df
  freeze_core true
}

energy('sapt0/aug-cc-pvdz')

--------------------------------------------------------------------------

  //              Dimer HF             //
    Molecular point group: c1
  Charge       = 0
  Multiplicity = 1
  Basis Set: AUG-CC-PVDZ
    Blend: AUG-CC-PVDZ
  Basis Set: (AUG-CC-PVDZ AUX)
    Blend: AUG-CC-PVDZ-JKFIT
  @DF-RHF Final Energy:  -455.68819338684284
    Total Energy =                       -455.6881933868428405
  //            Monomer A HF           //
    Molecular point group: c1
  Multiplicity = 1
  Basis Set: AUG-CC-PVDZ
    Blend: AUG-CC-PVDZ
  Basis Set: (AUG-CC-PVDZ AUX)
    Blend: AUG-CC-PVDZ-JKFIT
  @DF-RHF Final Energy:  -227.84408589451920
    Total Energy =                       -227.8440858945191962
  //            Monomer B HF           //
    Molecular point group: c1

    Geometry (in Bohr), charge = 0, multiplicity = 1:

       Center              X                  Y                   Z               Mass
    ------------   -----------------  -----------------  -----------------  -----------------
      Gh(O)          -5.531022370000     2.939402900000     1.977626240000    15.994914619570
      Gh(O)          -2.407088860000     0.908177340000     0.049059090000    15.994914619570
      Gh(H)          -0.503048870000     1.375792050000     4.638809080000     1.007825032230
      Gh(H)           0.000000000000     4.251042850000     3.090722380000     1.007825032230
      Gh(H)          -2.389482150000     4.019167790000     5.401950410000     1.007825032230
      Gh(H)          -3.747714110000     0.471479300000    -1.215575120000     1.007825032230
      Gh(C)          -1.418597820000     2.985005000000     3.844051900000    12.000000000000
      Gh(C)          -3.322637810000     2.286288140000     1.912214130000    12.000000000000
         O           32.197643180000     8.808933710000    12.879645240000    15.994914619570
         O           35.321576690000    10.840159280000    10.951078080000    15.994914619570
         H           37.225616680000    10.372544560000    15.540828070000     1.007825032230
         H           37.728665550000     7.497293760000    13.992741370000     1.007825032230
         H           35.339183400000     7.729168830000    16.303969400000     1.007825032230
         H           33.980951440000    11.276857320000     9.686443870000     1.007825032230
         C           36.310067730000     8.763331610000    14.746070890000    12.000000000000
         C           34.406027740000     9.462048480000    12.814233120000    12.000000000000

  Charge       = 0
  Multiplicity = 1
  Basis Set: AUG-CC-PVDZ
    Blend: AUG-CC-PVDZ
  Basis Set: (AUG-CC-PVDZ AUX)
    Blend: AUG-CC-PVDZ-JKFIT

    Orbital Energies [Eh]
    ---------------------

    Doubly Occupied:

       1A    -20.629476     2A    -20.552804     3A    -11.396108
       4A    -11.250979     5A     -1.475853     6A     -1.357486
       7A     -1.032999     8A     -0.837930     9A     -0.703065
      10A     -0.688465    11A     -0.657749    12A     -0.576538
      13A     -0.569697    14A     -0.561403    15A     -0.475343
      16A     -0.452434

  @DF-RHF Final Energy:  -227.84408589689806

   => Energetics <=

    Nuclear Repulsion Energy =            121.7484301380947613
    One-Electron Energy =                -552.7483713009264648
    Two-Electron Energy =                 203.1558552659336385
    Total Energy =                       -227.8440858968980649

  Dipole Moment: [D]
     X:     2.1048      Y:     0.7191      Z:    -0.2116     Total:     2.2342

    SAPT Results
  --------------------------------------------------------------------------------------------------------
    Electrostatics                 -0.02155520 [mEh]      -0.01352609 [kcal/mol]      -0.05659317 [kJ/mol]
      Elst10,r                     -0.02155520 [mEh]      -0.01352609 [kcal/mol]      -0.05659317 [kJ/mol]

    Exchange                       -0.00000000 [mEh]      -0.00000000 [kcal/mol]      -0.00000000 [kJ/mol]
      Exch10                       -0.00000000 [mEh]      -0.00000000 [kcal/mol]      -0.00000000 [kJ/mol]
      Exch10(S^2)                  -0.00000000 [mEh]      -0.00000000 [kcal/mol]      -0.00000000 [kJ/mol]

    Induction                      -0.00004023 [mEh]      -0.00002524 [kcal/mol]      -0.00010561 [kJ/mol]
      Ind20,r                      -0.00002857 [mEh]      -0.00001793 [kcal/mol]      -0.00007500 [kJ/mol]
      Exch-Ind20,r                  0.00000000 [mEh]       0.00000000 [kcal/mol]       0.00000000 [kJ/mol]
      delta HF,r (2)               -0.00001166 [mEh]      -0.00000732 [kcal/mol]      -0.00003061 [kJ/mol]

    Dispersion                     -0.00016267 [mEh]      -0.00010208 [kcal/mol]      -0.00042710 [kJ/mol]
      Disp20                       -0.00016267 [mEh]      -0.00010208 [kcal/mol]      -0.00042710 [kJ/mol]
      Exch-Disp20                   0.00000000 [mEh]       0.00000000 [kcal/mol]       0.00000000 [kJ/mol]
      Disp20 (SS)                  -0.00008134 [mEh]      -0.00005104 [kcal/mol]      -0.00021355 [kJ/mol]
      Disp20 (OS)                  -0.00008134 [mEh]      -0.00005104 [kcal/mol]      -0.00021355 [kJ/mol]
      Exch-Disp20 (SS)              0.00000000 [mEh]       0.00000000 [kcal/mol]       0.00000000 [kJ/mol]
      Exch-Disp20 (OS)              0.00000000 [mEh]       0.00000000 [kcal/mol]       0.00000000 [kJ/mol]

  Total HF                         -0.02159543 [mEh]      -0.01355133 [kcal/mol]      -0.05669878 [kJ/mol]
  Total SAPT0                      -0.02175810 [mEh]      -0.01365341 [kcal/mol]      -0.05712588 [kJ/mol]

  Special recipe for scaled SAPT0 (see Manual):
    Electrostatics sSAPT0          -0.02155520 [mEh]      -0.01352609 [kcal/mol]      -0.05659317 [kJ/mol]
    Exchange sSAPT0                -0.00000000 [mEh]      -0.00000000 [kcal/mol]      -0.00000000 [kJ/mol]
    Induction sSAPT0               -0.00004023 [mEh]      -0.00002524 [kcal/mol]      -0.00010561 [kJ/mol]
    Dispersion sSAPT0              -0.00016267 [mEh]      -0.00010208 [kcal/mol]      -0.00042710 [kJ/mol]
  Total sSAPT0                     -0.02175810 [mEh]      -0.01365341 [kcal/mol]      -0.05712588 [kJ/mol]
  --------------------------------------------------------------------------------------------------------

*** Psi4 exiting successfully. Buy a developer a beer!
