                               Psi4 1.4rc3

  ==> Input File <==

--------------------------------------------------------------------------
# PSI4 file produced by CrystaLattE

# Generated from:               acetic_acid.xyz
# Psithon input for N-mer:      2mer-0+475
# Number of atoms per monomer:  [8, 8]
# Number of replicas:           2
# COM priority:                 1.497839593154e-05
# Minimum COM separations:      21.467
# Separation priority:          2.594601165970e-05
# Minimum monomer separations:  17.875
# Cutoff priority:              7.681171795414e-07
# Nuclear repulsion energy:     268.7902681904816

memory 7 GB

molecule Dimer_0_475 {
  O           -5.53102237       2.93940290       1.97762624
  O           -2.40708886       0.90817734       0.04905909
  H           -0.50304887       1.37579205       4.63880908
  H            0.00000000       4.25104285       3.09072238
  H           -2.38948215       4.01916779       5.40195041
  H           -3.74771411       0.47147930      -1.21557512
  C           -1.41859782       2.98500500       3.84405190
  C           -3.32263781       2.28628814       1.91221413
--
  O          -30.68346607     -20.24810357     -19.82641174
  O          -27.55953256     -22.27932914     -21.75497890
  H          -25.65549258     -21.81171443     -17.16522890
  H          -25.15244370     -18.93646362     -18.71331560
  H          -27.54192585     -19.16833869     -16.40208757
  H          -28.90015781     -22.71602718     -23.01961310
  C          -26.57104153     -20.20250148     -17.95998608
  C          -28.47508152     -20.90121834     -19.89182385
units = au
no_com
no_reorient
}

set {
  e_convergence 10
  d_convergence 10
  scf_type df
  mp2_type df
  cc_type df
  freeze_core true
}

energy('sapt0/aug-cc-pvdz')

--------------------------------------------------------------------------

  //              Dimer HF             //
    Molecular point group: c1
  Charge       = 0
  Multiplicity = 1
  Basis Set: AUG-CC-PVDZ
    Blend: AUG-CC-PVDZ
  Basis Set: (AUG-CC-PVDZ AUX)
    Blend: AUG-CC-PVDZ-JKFIT
  @DF-RHF Final Energy:  -455.68816265765463
    Total Energy =                       -455.6881626576546296
  //            Monomer A HF           //
    Molecular point group: c1
  Multiplicity = 1
  Basis Set: AUG-CC-PVDZ
    Blend: AUG-CC-PVDZ
  Basis Set: (AUG-CC-PVDZ AUX)
    Blend: AUG-CC-PVDZ-JKFIT
  @DF-RHF Final Energy:  -227.84408589704219
    Total Energy =                       -227.8440858970421914
  //            Monomer B HF           //
    Molecular point group: c1

    Geometry (in Bohr), charge = 0, multiplicity = 1:

       Center              X                  Y                   Z               Mass
    ------------   -----------------  -----------------  -----------------  -----------------
      Gh(O)          -5.531022370000     2.939402900000     1.977626240000    15.994914619570
      Gh(O)          -2.407088860000     0.908177340000     0.049059090000    15.994914619570
      Gh(H)          -0.503048870000     1.375792050000     4.638809080000     1.007825032230
      Gh(H)           0.000000000000     4.251042850000     3.090722380000     1.007825032230
      Gh(H)          -2.389482150000     4.019167790000     5.401950410000     1.007825032230
      Gh(H)          -3.747714110000     0.471479300000    -1.215575120000     1.007825032230
      Gh(C)          -1.418597820000     2.985005000000     3.844051900000    12.000000000000
      Gh(C)          -3.322637810000     2.286288140000     1.912214130000    12.000000000000
         O          -30.683466070000   -20.248103570000   -19.826411740000    15.994914619570
         O          -27.559532560000   -22.279329140000   -21.754978900000    15.994914619570
         H          -25.655492580000   -21.811714430000   -17.165228900000     1.007825032230
         H          -25.152443700000   -18.936463620000   -18.713315600000     1.007825032230
         H          -27.541925850000   -19.168338690000   -16.402087570000     1.007825032230
         H          -28.900157810000   -22.716027180000   -23.019613100000     1.007825032230
         C          -26.571041530000   -20.202501480000   -17.959986080000    12.000000000000
         C          -28.475081520000   -20.901218340000   -19.891823850000    12.000000000000

  Charge       = 0
  Multiplicity = 1
  Basis Set: AUG-CC-PVDZ
    Blend: AUG-CC-PVDZ
  Basis Set: (AUG-CC-PVDZ AUX)
    Blend: AUG-CC-PVDZ-JKFIT

    Orbital Energies [Eh]
    ---------------------

    Doubly Occupied:

       1A    -20.629476     2A    -20.552804     3A    -11.396108
       4A    -11.250979     5A     -1.475853     6A     -1.357486
       7A     -1.032999     8A     -0.837930     9A     -0.703065
      10A     -0.688465    11A     -0.657749    12A     -0.576538
      13A     -0.569697    14A     -0.561403    15A     -0.475343
      16A     -0.452434

  @DF-RHF Final Energy:  -227.84408589592584

   => Energetics <=

    Nuclear Repulsion Energy =            121.7484301474852657
    One-Electron Energy =                -552.7483713087343631
    Two-Electron Energy =                 203.1558552653232823
    Total Energy =                       -227.8440858959258435

  Dipole Moment: [D]
     X:     2.1048      Y:    -0.7191      Z:    -0.2116     Total:     2.2342

    SAPT Results
  --------------------------------------------------------------------------------------------------------
    Electrostatics                  0.00915804 [mEh]       0.00574676 [kcal/mol]       0.02404443 [kJ/mol]
      Elst10,r                      0.00915804 [mEh]       0.00574676 [kcal/mol]       0.02404443 [kJ/mol]

    Exchange                       -0.00000000 [mEh]      -0.00000000 [kcal/mol]      -0.00000000 [kJ/mol]
      Exch10                       -0.00000000 [mEh]      -0.00000000 [kcal/mol]      -0.00000000 [kJ/mol]
      Exch10(S^2)                  -0.00000000 [mEh]      -0.00000000 [kcal/mol]      -0.00000000 [kJ/mol]

    Induction                      -0.00002273 [mEh]      -0.00001426 [kcal/mol]      -0.00005966 [kJ/mol]
      Ind20,r                      -0.00000938 [mEh]      -0.00000589 [kcal/mol]      -0.00002463 [kJ/mol]
      Exch-Ind20,r                  0.00000000 [mEh]       0.00000000 [kcal/mol]       0.00000000 [kJ/mol]
      delta HF,r (2)               -0.00001334 [mEh]      -0.00000837 [kcal/mol]      -0.00003504 [kJ/mol]

    Dispersion                     -0.00013822 [mEh]      -0.00008674 [kcal/mol]      -0.00036291 [kJ/mol]
      Disp20                       -0.00013822 [mEh]      -0.00008674 [kcal/mol]      -0.00036291 [kJ/mol]
      Exch-Disp20                   0.00000000 [mEh]       0.00000000 [kcal/mol]       0.00000000 [kJ/mol]
      Disp20 (SS)                  -0.00006911 [mEh]      -0.00004337 [kcal/mol]      -0.00018145 [kJ/mol]
      Disp20 (OS)                  -0.00006911 [mEh]      -0.00004337 [kcal/mol]      -0.00018145 [kJ/mol]
      Exch-Disp20 (SS)              0.00000000 [mEh]       0.00000000 [kcal/mol]       0.00000000 [kJ/mol]
      Exch-Disp20 (OS)              0.00000000 [mEh]       0.00000000 [kcal/mol]       0.00000000 [kJ/mol]

  Total HF                          0.00913531 [mEh]       0.00573250 [kcal/mol]       0.02398476 [kJ/mol]
  Total SAPT0                       0.00899709 [mEh]       0.00564576 [kcal/mol]       0.02362185 [kJ/mol]

  Special recipe for scaled SAPT0 (see Manual):
    Electrostatics sSAPT0           0.00915804 [mEh]       0.00574676 [kcal/mol]       0.02404443 [kJ/mol]
    Exchange sSAPT0                -0.00000000 [mEh]      -0.00000000 [kcal/mol]      -0.00000000 [kJ/mol]
    Induction sSAPT0               -0.00002273 [mEh]      -0.00001426 [kcal/mol]      -0.00005966 [kJ/mol]
    Dispersion sSAPT0              -0.00013822 [mEh]      -0.00008674 [kcal/mol]      -0.00036291 [kJ/mol]
  Total sSAPT0                      0.00899709 [mEh]       0.00564576 [kcal/mol]       0.02362185 [kJ/mol]
  --------------------------------------------------------------------------------------------------------

*** Psi4 exiting successfully. Buy a developer a beer!
