                               Psi4 1.4rc3

  ==> Input File <==

--------------------------------------------------------------------------
# PSI4 file produced by CrystaLattE

# Generated from:               acetic_acid.xyz
# Psithon input for N-mer:      2mer-0+21
# Number of atoms per monomer:  [8, 8]
# Number of replicas:           2
# COM priority:                 3.269067315112e-04
# Minimum COM separations:      7.682
# Separation priority:          1.648891900070e-03
# Minimum monomer separations:  4.479
# Cutoff priority:              1.948002812068e-04
# Nuclear repulsion energy:     314.50048618562647

memory 7 GB

molecule Dimer_0_21 {
  O           -5.53102237       2.93940290       1.97762624
  O           -2.40708886       0.90817734       0.04905909
  H           -0.50304887       1.37579205       4.63880908
  H            0.00000000       4.25104285       3.09072238
  H           -2.38948215       4.01916779       5.40195041
  H           -3.74771411       0.47147930      -1.21557512
  C           -1.41859782       2.98500500       3.84405190
  C           -3.32263781       2.28628814       1.91221413
--
  O            7.04519948       8.80893371       1.97762624
  O           10.16913299      10.84015928       0.04905909
  H           12.07317298      10.37254456       4.63880908
  H           12.57622185       7.49729376       3.09072238
  H           10.18673970       7.72916883       5.40195041
  H            8.82850774      11.27685732      -1.21557512
  C           11.15762403       8.76333161       3.84405190
  C            9.25358404       9.46204848       1.91221413
units = au
no_com
no_reorient
}

set {
  e_convergence 10
  d_convergence 10
  scf_type df
  mp2_type df
  cc_type df
  freeze_core true
}

energy('sapt0/aug-cc-pvdz')

--------------------------------------------------------------------------

  //              Dimer HF             //
    Molecular point group: c1
  Charge       = 0
  Multiplicity = 1
  Basis Set: AUG-CC-PVDZ
    Blend: AUG-CC-PVDZ
  Basis Set: (AUG-CC-PVDZ AUX)
    Blend: AUG-CC-PVDZ-JKFIT
  @DF-RHF Final Energy:  -455.68896893315070
    Total Energy =                       -455.6889689331507043
  //            Monomer A HF           //
    Molecular point group: c1
  Multiplicity = 1
  Basis Set: AUG-CC-PVDZ
    Blend: AUG-CC-PVDZ
  Basis Set: (AUG-CC-PVDZ AUX)
    Blend: AUG-CC-PVDZ-JKFIT
  @DF-RHF Final Energy:  -227.84410766612478
    Total Energy =                       -227.8441076661247848
  //            Monomer B HF           //
    Molecular point group: c1

    Geometry (in Bohr), charge = 0, multiplicity = 1:

       Center              X                  Y                   Z               Mass
    ------------   -----------------  -----------------  -----------------  -----------------
      Gh(O)          -5.531022370000     2.939402900000     1.977626240000    15.994914619570
      Gh(O)          -2.407088860000     0.908177340000     0.049059090000    15.994914619570
      Gh(H)          -0.503048870000     1.375792050000     4.638809080000     1.007825032230
      Gh(H)           0.000000000000     4.251042850000     3.090722380000     1.007825032230
      Gh(H)          -2.389482150000     4.019167790000     5.401950410000     1.007825032230
      Gh(H)          -3.747714110000     0.471479300000    -1.215575120000     1.007825032230
      Gh(C)          -1.418597820000     2.985005000000     3.844051900000    12.000000000000
      Gh(C)          -3.322637810000     2.286288140000     1.912214130000    12.000000000000
         O            7.045199480000     8.808933710000     1.977626240000    15.994914619570
         O           10.169132990000    10.840159280000     0.049059090000    15.994914619570
         H           12.073172980000    10.372544560000     4.638809080000     1.007825032230
         H           12.576221850000     7.497293760000     3.090722380000     1.007825032230
         H           10.186739700000     7.729168830000     5.401950410000     1.007825032230
         H            8.828507740000    11.276857320000    -1.215575120000     1.007825032230
         C           11.157624030000     8.763331610000     3.844051900000    12.000000000000
         C            9.253584040000     9.462048480000     1.912214130000    12.000000000000

  Charge       = 0
  Multiplicity = 1
  Basis Set: AUG-CC-PVDZ
    Blend: AUG-CC-PVDZ
  Basis Set: (AUG-CC-PVDZ AUX)
    Blend: AUG-CC-PVDZ-JKFIT

    Orbital Energies [Eh]
    ---------------------

    Doubly Occupied:

       1A    -20.629485     2A    -20.552823     3A    -11.396125
       4A    -11.250982     5A     -1.475856     6A     -1.357491
       7A     -1.033002     8A     -0.837931     9A     -0.703068
      10A     -0.688467    11A     -0.657749    12A     -0.576540
      13A     -0.569698    14A     -0.561406    15A     -0.475348
      16A     -0.452439

  @DF-RHF Final Energy:  -227.84411594836271

   => Energetics <=

    Nuclear Repulsion Energy =            121.7484301466045054
    One-Electron Energy =                -552.7482757024768034
    Two-Electron Energy =                 203.1557296075095849
    Total Energy =                       -227.8441159483627132

  Dipole Moment: [D]
     X:     2.1039      Y:     0.7182      Z:    -0.2109     Total:     2.2331

    SAPT Results
  --------------------------------------------------------------------------------------------------------
    Electrostatics                 -0.70830963 [mEh]      -0.44447100 [kcal/mol]      -1.85966668 [kJ/mol]
      Elst10,r                     -0.70830963 [mEh]      -0.44447100 [kcal/mol]      -1.85966668 [kJ/mol]

    Exchange                        0.00113906 [mEh]       0.00071477 [kcal/mol]       0.00299059 [kJ/mol]
      Exch10                        0.00113906 [mEh]       0.00071477 [kcal/mol]       0.00299059 [kJ/mol]
      Exch10(S^2)                   0.00113905 [mEh]       0.00071477 [kcal/mol]       0.00299059 [kJ/mol]

    Induction                      -0.03814809 [mEh]      -0.02393829 [kcal/mol]      -0.10015780 [kJ/mol]
      Ind20,r                      -0.03734422 [mEh]      -0.02343385 [kcal/mol]      -0.09804724 [kJ/mol]
      Exch-Ind20,r                  0.00011737 [mEh]       0.00007365 [kcal/mol]       0.00030816 [kJ/mol]
      delta HF,r (2)               -0.00092124 [mEh]      -0.00057809 [kcal/mol]      -0.00241872 [kJ/mol]

    Dispersion                     -0.12623872 [mEh]      -0.07921599 [kcal/mol]      -0.33143971 [kJ/mol]
      Disp20                       -0.12642089 [mEh]      -0.07933031 [kcal/mol]      -0.33191800 [kJ/mol]
      Exch-Disp20                   0.00018217 [mEh]       0.00011431 [kcal/mol]       0.00047829 [kJ/mol]
      Disp20 (SS)                  -0.06321044 [mEh]      -0.03966515 [kcal/mol]      -0.16595900 [kJ/mol]
      Disp20 (OS)                  -0.06321044 [mEh]      -0.03966515 [kcal/mol]      -0.16595900 [kJ/mol]
      Exch-Disp20 (SS)              0.00013499 [mEh]       0.00008471 [kcal/mol]       0.00035442 [kJ/mol]
      Exch-Disp20 (OS)              0.00004718 [mEh]       0.00002961 [kcal/mol]       0.00012387 [kJ/mol]

  Total HF                         -0.74531866 [mEh]      -0.46769452 [kcal/mol]      -1.95683388 [kJ/mol]
  Total SAPT0                      -0.87155738 [mEh]      -0.54691051 [kcal/mol]      -2.28827359 [kJ/mol]

  Special recipe for scaled SAPT0 (see Manual):
    Electrostatics sSAPT0          -0.70830963 [mEh]      -0.44447100 [kcal/mol]      -1.85966668 [kJ/mol]
    Exchange sSAPT0                 0.00113906 [mEh]       0.00071477 [kcal/mol]       0.00299059 [kJ/mol]
    Induction sSAPT0               -0.03814809 [mEh]      -0.02393829 [kcal/mol]      -0.10015780 [kJ/mol]
    Dispersion sSAPT0              -0.12623872 [mEh]      -0.07921599 [kcal/mol]      -0.33143971 [kJ/mol]
  Total sSAPT0                     -0.87155738 [mEh]      -0.54691051 [kcal/mol]      -2.28827359 [kJ/mol]
  --------------------------------------------------------------------------------------------------------

*** Psi4 exiting successfully. Buy a developer a beer!
