                               Psi4 1.4rc3

  ==> Input File <==

--------------------------------------------------------------------------
# PSI4 file produced by CrystaLattE

# Generated from:               acetic_acid.xyz
# Psithon input for N-mer:      2mer-0+419
# Number of atoms per monomer:  [8, 8]
# Number of replicas:           2
# COM priority:                 2.167623708690e-05
# Minimum COM separations:      18.979
# Separation priority:          3.129894862132e-05
# Minimum monomer separations:  16.792
# Cutoff priority:              9.863695699855e-07
# Nuclear repulsion energy:     271.9485062872724

memory 7 GB

molecule Dimer_0_419 {
  O           -5.53102237       2.93940290       1.97762624
  O           -2.40708886       0.90817734       0.04905909
  H           -0.50304887       1.37579205       4.63880908
  H            0.00000000       4.25104285       3.09072238
  H           -2.38948215       4.01916779       5.40195041
  H           -3.74771411       0.47147930      -1.21557512
  C           -1.41859782       2.98500500       3.84405190
  C           -3.32263781       2.28628814       1.91221413
--
  O          -30.53758190     -16.38351916      -3.47338325
  O          -33.66151541     -18.41474473      -5.40195041
  H          -35.56555540     -17.94713001      -0.81220041
  H          -36.06860427     -15.07187921      -2.36028711
  H          -33.67912212     -15.30375427      -0.04905909
  H          -32.32089016     -18.85144277      -6.66658461
  C          -34.65000644     -16.33791706      -1.60695760
  C          -32.74596646     -17.03663393      -3.53879536
units = au
no_com
no_reorient
}

set {
  e_convergence 10
  d_convergence 10
  scf_type df
  mp2_type df
  cc_type df
  freeze_core true
}

energy('sapt0/aug-cc-pvdz')

--------------------------------------------------------------------------

  //              Dimer HF             //
    Molecular point group: c1
  Charge       = 0
  Multiplicity = 1
  Basis Set: AUG-CC-PVDZ
    Blend: AUG-CC-PVDZ
  Basis Set: (AUG-CC-PVDZ AUX)
    Blend: AUG-CC-PVDZ-JKFIT
  @DF-RHF Final Energy:  -455.68815521764384
    Total Energy =                       -455.6881552176438390
  //            Monomer A HF           //
    Molecular point group: c1
  Multiplicity = 1
  Basis Set: AUG-CC-PVDZ
    Blend: AUG-CC-PVDZ
  Basis Set: (AUG-CC-PVDZ AUX)
    Blend: AUG-CC-PVDZ-JKFIT
  @DF-RHF Final Energy:  -227.84408589654419
    Total Energy =                       -227.8440858965441862
  //            Monomer B HF           //
    Molecular point group: c1

    Geometry (in Bohr), charge = 0, multiplicity = 1:

       Center              X                  Y                   Z               Mass
    ------------   -----------------  -----------------  -----------------  -----------------
      Gh(O)          -5.531022370000     2.939402900000     1.977626240000    15.994914619570
      Gh(O)          -2.407088860000     0.908177340000     0.049059090000    15.994914619570
      Gh(H)          -0.503048870000     1.375792050000     4.638809080000     1.007825032230
      Gh(H)           0.000000000000     4.251042850000     3.090722380000     1.007825032230
      Gh(H)          -2.389482150000     4.019167790000     5.401950410000     1.007825032230
      Gh(H)          -3.747714110000     0.471479300000    -1.215575120000     1.007825032230
      Gh(C)          -1.418597820000     2.985005000000     3.844051900000    12.000000000000
      Gh(C)          -3.322637810000     2.286288140000     1.912214130000    12.000000000000
         O          -30.537581900000   -16.383519160000    -3.473383250000    15.994914619570
         O          -33.661515410000   -18.414744730000    -5.401950410000    15.994914619570
         H          -35.565555400000   -17.947130010000    -0.812200410000     1.007825032230
         H          -36.068604270000   -15.071879210000    -2.360287110000     1.007825032230
         H          -33.679122120000   -15.303754270000    -0.049059090000     1.007825032230
         H          -32.320890160000   -18.851442770000    -6.666584610000     1.007825032230
         C          -34.650006440000   -16.337917060000    -1.606957600000    12.000000000000
         C          -32.745966460000   -17.036633930000    -3.538795360000    12.000000000000

  Charge       = 0
  Multiplicity = 1
  Basis Set: AUG-CC-PVDZ
    Blend: AUG-CC-PVDZ
  Basis Set: (AUG-CC-PVDZ AUX)
    Blend: AUG-CC-PVDZ-JKFIT

    Orbital Energies [Eh]
    ---------------------

    Doubly Occupied:

       1A    -20.629476     2A    -20.552804     3A    -11.396108
       4A    -11.250979     5A     -1.475853     6A     -1.357486
       7A     -1.032999     8A     -0.837930     9A     -0.703065
      10A     -0.688465    11A     -0.657749    12A     -0.576538
      13A     -0.569697    14A     -0.561403    15A     -0.475343
      16A     -0.452434

  @DF-RHF Final Energy:  -227.84408589608378

   => Energetics <=

    Nuclear Repulsion Energy =            121.7484301685239814
    One-Electron Energy =                -552.7483713567703489
    Two-Electron Energy =                 203.1558552921625562
    Total Energy =                       -227.8440858960837829

  Dipole Moment: [D]
     X:    -2.1048      Y:    -0.7191      Z:    -0.2116     Total:     2.2342

    SAPT Results
  --------------------------------------------------------------------------------------------------------
    Electrostatics                  0.01663169 [mEh]       0.01043654 [kcal/mol]       0.04366650 [kJ/mol]
      Elst10,r                      0.01663169 [mEh]       0.01043654 [kcal/mol]       0.04366650 [kJ/mol]

    Exchange                       -0.00000000 [mEh]      -0.00000000 [kcal/mol]      -0.00000000 [kJ/mol]
      Exch10                       -0.00000000 [mEh]      -0.00000000 [kcal/mol]      -0.00000000 [kJ/mol]
      Exch10(S^2)                  -0.00000000 [mEh]      -0.00000000 [kcal/mol]      -0.00000000 [kJ/mol]

    Induction                      -0.00005671 [mEh]      -0.00003558 [kcal/mol]      -0.00014888 [kJ/mol]
      Ind20,r                      -0.00004910 [mEh]      -0.00003081 [kcal/mol]      -0.00012892 [kJ/mol]
      Exch-Ind20,r                  0.00000000 [mEh]       0.00000000 [kcal/mol]       0.00000000 [kJ/mol]
      delta HF,r (2)               -0.00000760 [mEh]      -0.00000477 [kcal/mol]      -0.00001997 [kJ/mol]

    Dispersion                     -0.00026731 [mEh]      -0.00016774 [kcal/mol]      -0.00070181 [kJ/mol]
      Disp20                       -0.00026731 [mEh]      -0.00016774 [kcal/mol]      -0.00070181 [kJ/mol]
      Exch-Disp20                   0.00000000 [mEh]       0.00000000 [kcal/mol]       0.00000000 [kJ/mol]
      Disp20 (SS)                  -0.00013365 [mEh]      -0.00008387 [kcal/mol]      -0.00035091 [kJ/mol]
      Disp20 (OS)                  -0.00013365 [mEh]      -0.00008387 [kcal/mol]      -0.00035091 [kJ/mol]
      Exch-Disp20 (SS)              0.00000000 [mEh]       0.00000000 [kcal/mol]       0.00000000 [kJ/mol]
      Exch-Disp20 (OS)              0.00000000 [mEh]       0.00000000 [kcal/mol]       0.00000000 [kJ/mol]

  Total HF                          0.01657498 [mEh]       0.01040096 [kcal/mol]       0.04351761 [kJ/mol]
  Total SAPT0                       0.01630768 [mEh]       0.01023322 [kcal/mol]       0.04281580 [kJ/mol]

  Special recipe for scaled SAPT0 (see Manual):
    Electrostatics sSAPT0           0.01663169 [mEh]       0.01043654 [kcal/mol]       0.04366650 [kJ/mol]
    Exchange sSAPT0                -0.00000000 [mEh]      -0.00000000 [kcal/mol]      -0.00000000 [kJ/mol]
    Induction sSAPT0               -0.00005671 [mEh]      -0.00003558 [kcal/mol]      -0.00014888 [kJ/mol]
    Dispersion sSAPT0              -0.00026731 [mEh]      -0.00016774 [kcal/mol]      -0.00070181 [kJ/mol]
  Total sSAPT0                      0.01630768 [mEh]       0.01023322 [kcal/mol]       0.04281580 [kJ/mol]
  --------------------------------------------------------------------------------------------------------

*** Psi4 exiting successfully. Buy a developer a beer!
