                               Psi4 1.4rc3

  ==> Input File <==

--------------------------------------------------------------------------
# PSI4 file produced by CrystaLattE

# Generated from:               acetic_acid.xyz
# Psithon input for N-mer:      2mer-0+206
# Number of atoms per monomer:  [8, 8]
# Number of replicas:           2
# COM priority:                 2.780577614256e-05
# Minimum COM separations:      17.467
# Separation priority:          4.733730804498e-05
# Minimum monomer separations:  14.629
# Cutoff priority:              1.712398121456e-06
# Nuclear repulsion energy:     274.49618578187824

memory 7 GB

molecule Dimer_0_206 {
  O           -5.53102237       2.93940290       1.97762624
  O           -2.40708886       0.90817734       0.04905909
  H           -0.50304887       1.37579205       4.63880908
  H            0.00000000       4.25104285       3.09072238
  H           -2.38948215       4.01916779       5.40195041
  H           -3.74771411       0.47147930      -1.21557512
  C           -1.41859782       2.98500500       3.84405190
  C           -3.32263781       2.28628814       1.91221413
--
  O            7.19108365     -25.97232601     -14.37540224
  O            4.06715015     -23.94110044     -16.30396940
  H            2.16311016     -24.40871515     -11.71421941
  H            1.66006128     -27.28396595     -13.26230610
  H            4.04954344     -27.05209089     -10.95107808
  H            5.40777540     -23.50440240     -17.56860360
  C            3.07865911     -26.01792810     -12.50897659
  C            4.98269910     -25.31921124     -14.44081435
units = au
no_com
no_reorient
}

set {
  e_convergence 10
  d_convergence 10
  scf_type df
  mp2_type df
  cc_type df
  freeze_core true
}

energy('sapt0/aug-cc-pvdz')

--------------------------------------------------------------------------

  //              Dimer HF             //
    Molecular point group: c1
  Charge       = 0
  Multiplicity = 1
  Basis Set: AUG-CC-PVDZ
    Blend: AUG-CC-PVDZ
  Basis Set: (AUG-CC-PVDZ AUX)
    Blend: AUG-CC-PVDZ-JKFIT
  @DF-RHF Final Energy:  -455.68816912021225
    Total Energy =                       -455.6881691202122511
  //            Monomer A HF           //
    Molecular point group: c1
  Multiplicity = 1
  Basis Set: AUG-CC-PVDZ
    Blend: AUG-CC-PVDZ
  Basis Set: (AUG-CC-PVDZ AUX)
    Blend: AUG-CC-PVDZ-JKFIT
  @DF-RHF Final Energy:  -227.84408589598257
    Total Energy =                       -227.8440858959825732
  //            Monomer B HF           //
    Molecular point group: c1

    Geometry (in Bohr), charge = 0, multiplicity = 1:

       Center              X                  Y                   Z               Mass
    ------------   -----------------  -----------------  -----------------  -----------------
      Gh(O)          -5.531022370000     2.939402900000     1.977626240000    15.994914619570
      Gh(O)          -2.407088860000     0.908177340000     0.049059090000    15.994914619570
      Gh(H)          -0.503048870000     1.375792050000     4.638809080000     1.007825032230
      Gh(H)           0.000000000000     4.251042850000     3.090722380000     1.007825032230
      Gh(H)          -2.389482150000     4.019167790000     5.401950410000     1.007825032230
      Gh(H)          -3.747714110000     0.471479300000    -1.215575120000     1.007825032230
      Gh(C)          -1.418597820000     2.985005000000     3.844051900000    12.000000000000
      Gh(C)          -3.322637810000     2.286288140000     1.912214130000    12.000000000000
         O            7.191083650000   -25.972326010000   -14.375402240000    15.994914619570
         O            4.067150150000   -23.941100440000   -16.303969400000    15.994914619570
         H            2.163110160000   -24.408715150000   -11.714219410000     1.007825032230
         H            1.660061280000   -27.283965950000   -13.262306100000     1.007825032230
         H            4.049543440000   -27.052090890000   -10.951078080000     1.007825032230
         H            5.407775400000   -23.504402400000   -17.568603600000     1.007825032230
         C            3.078659110000   -26.017928100000   -12.508976590000    12.000000000000
         C            4.982699100000   -25.319211240000   -14.440814350000    12.000000000000

  Charge       = 0
  Multiplicity = 1
  Basis Set: AUG-CC-PVDZ
    Blend: AUG-CC-PVDZ
  Basis Set: (AUG-CC-PVDZ AUX)
    Blend: AUG-CC-PVDZ-JKFIT

    Orbital Energies [Eh]
    ---------------------

    Doubly Occupied:

       1A    -20.629476     2A    -20.552804     3A    -11.396108
       4A    -11.250979     5A     -1.475853     6A     -1.357486
       7A     -1.032999     8A     -0.837930     9A     -0.703065
      10A     -0.688465    11A     -0.657749    12A     -0.576538
      13A     -0.569697    14A     -0.561403    15A     -0.475343
      16A     -0.452434

  @DF-RHF Final Energy:  -227.84408589394914

   => Energetics <=

    Nuclear Repulsion Energy =            121.7484302894568060
    One-Electron Energy =                -552.7483715794003274
    Two-Electron Energy =                 203.1558553959943936
    Total Energy =                       -227.8440858939491420

  Dipole Moment: [D]
     X:    -2.1048      Y:     0.7191      Z:    -0.2116     Total:     2.2342

    SAPT Results
  --------------------------------------------------------------------------------------------------------
    Electrostatics                  0.00271190 [mEh]       0.00170175 [kcal/mol]       0.00712010 [kJ/mol]
      Elst10,r                      0.00271190 [mEh]       0.00170175 [kcal/mol]       0.00712010 [kJ/mol]

    Exchange                       -0.00000000 [mEh]      -0.00000000 [kcal/mol]      -0.00000000 [kJ/mol]
      Exch10                       -0.00000000 [mEh]      -0.00000000 [kcal/mol]      -0.00000000 [kJ/mol]
      Exch10(S^2)                  -0.00000000 [mEh]      -0.00000000 [kcal/mol]      -0.00000000 [kJ/mol]

    Induction                      -0.00004218 [mEh]      -0.00002647 [kcal/mol]      -0.00011076 [kJ/mol]
      Ind20,r                      -0.00002172 [mEh]      -0.00001363 [kcal/mol]      -0.00005702 [kJ/mol]
      Exch-Ind20,r                  0.00000000 [mEh]       0.00000000 [kcal/mol]       0.00000000 [kJ/mol]
      delta HF,r (2)               -0.00002047 [mEh]      -0.00001284 [kcal/mol]      -0.00005374 [kJ/mol]

    Dispersion                     -0.00043214 [mEh]      -0.00027117 [kcal/mol]      -0.00113458 [kJ/mol]
      Disp20                       -0.00043214 [mEh]      -0.00027117 [kcal/mol]      -0.00113458 [kJ/mol]
      Exch-Disp20                   0.00000000 [mEh]       0.00000000 [kcal/mol]       0.00000000 [kJ/mol]
      Disp20 (SS)                  -0.00021607 [mEh]      -0.00013559 [kcal/mol]      -0.00056729 [kJ/mol]
      Disp20 (OS)                  -0.00021607 [mEh]      -0.00013559 [kcal/mol]      -0.00056729 [kJ/mol]
      Exch-Disp20 (SS)              0.00000000 [mEh]       0.00000000 [kcal/mol]       0.00000000 [kJ/mol]
      Exch-Disp20 (OS)              0.00000000 [mEh]       0.00000000 [kcal/mol]       0.00000000 [kJ/mol]

  Total HF                          0.00266972 [mEh]       0.00167527 [kcal/mol]       0.00700935 [kJ/mol]
  Total SAPT0                       0.00223758 [mEh]       0.00140410 [kcal/mol]       0.00587477 [kJ/mol]

  Special recipe for scaled SAPT0 (see Manual):
    Electrostatics sSAPT0           0.00271190 [mEh]       0.00170175 [kcal/mol]       0.00712010 [kJ/mol]
    Exchange sSAPT0                -0.00000000 [mEh]      -0.00000000 [kcal/mol]      -0.00000000 [kJ/mol]
    Induction sSAPT0               -0.00004218 [mEh]      -0.00002647 [kcal/mol]      -0.00011076 [kJ/mol]
    Dispersion sSAPT0              -0.00043214 [mEh]      -0.00027117 [kcal/mol]      -0.00113458 [kJ/mol]
  Total sSAPT0                      0.00223758 [mEh]       0.00140410 [kcal/mol]       0.00587477 [kJ/mol]
  --------------------------------------------------------------------------------------------------------

*** Psi4 exiting successfully. Buy a developer a beer!
