                               Psi4 1.4rc3

  ==> Input File <==

--------------------------------------------------------------------------
# PSI4 file produced by CrystaLattE

# Generated from:               acetic_acid.xyz
# Psithon input for N-mer:      2mer-0+240
# Number of atoms per monomer:  [8, 8]
# Number of replicas:           2
# COM priority:                 2.130921448525e-05
# Minimum COM separations:      19.087
# Separation priority:          3.668642317486e-05
# Minimum monomer separations:  15.926
# Cutoff priority:              1.219009700858e-06
# Nuclear repulsion energy:     272.04196903728456

memory 7 GB

molecule Dimer_0_240 {
  O           -5.53102237       2.93940290       1.97762624
  O           -2.40708886       0.90817734       0.04905909
  H           -0.50304887       1.37579205       4.63880908
  H            0.00000000       4.25104285       3.09072238
  H           -2.38948215       4.01916779       5.40195041
  H           -3.74771411       0.47147930      -1.21557512
  C           -1.41859782       2.98500500       3.84405190
  C           -3.32263781       2.28628814       1.91221413
--
  O           19.76730551      -8.65435033     -25.27742123
  O           16.64337200     -10.68557590     -27.20598839
  H           14.73933201     -10.21796119     -22.61623840
  H           14.23628314      -7.34271038     -24.16432509
  H           16.62576529      -7.57458545     -21.85309707
  H           17.98399725     -11.12227394     -28.47062259
  C           15.65488096      -8.60874824     -23.41099558
  C           17.55892095      -9.30746510     -25.34283335
units = au
no_com
no_reorient
}

set {
  e_convergence 10
  d_convergence 10
  scf_type df
  mp2_type df
  cc_type df
  freeze_core true
}

energy('sapt0/aug-cc-pvdz')

--------------------------------------------------------------------------

  //              Dimer HF             //
    Molecular point group: c1
  Charge       = 0
  Multiplicity = 1
  Basis Set: AUG-CC-PVDZ
    Blend: AUG-CC-PVDZ
  Basis Set: (AUG-CC-PVDZ AUX)
    Blend: AUG-CC-PVDZ-JKFIT
  @DF-RHF Final Energy:  -455.68816383508971
    Total Energy =                       -455.6881638350897106
  //            Monomer A HF           //
    Molecular point group: c1
  Multiplicity = 1
  Basis Set: AUG-CC-PVDZ
    Blend: AUG-CC-PVDZ
  Basis Set: (AUG-CC-PVDZ AUX)
    Blend: AUG-CC-PVDZ-JKFIT
  @DF-RHF Final Energy:  -227.84408589590137
    Total Energy =                       -227.8440858959013724
  //            Monomer B HF           //
    Molecular point group: c1

    Geometry (in Bohr), charge = 0, multiplicity = 1:

       Center              X                  Y                   Z               Mass
    ------------   -----------------  -----------------  -----------------  -----------------
      Gh(O)          -5.531022370000     2.939402900000     1.977626240000    15.994914619570
      Gh(O)          -2.407088860000     0.908177340000     0.049059090000    15.994914619570
      Gh(H)          -0.503048870000     1.375792050000     4.638809080000     1.007825032230
      Gh(H)           0.000000000000     4.251042850000     3.090722380000     1.007825032230
      Gh(H)          -2.389482150000     4.019167790000     5.401950410000     1.007825032230
      Gh(H)          -3.747714110000     0.471479300000    -1.215575120000     1.007825032230
      Gh(C)          -1.418597820000     2.985005000000     3.844051900000    12.000000000000
      Gh(C)          -3.322637810000     2.286288140000     1.912214130000    12.000000000000
         O           19.767305510000    -8.654350330000   -25.277421230000    15.994914619570
         O           16.643372000000   -10.685575900000   -27.205988390000    15.994914619570
         H           14.739332010000   -10.217961190000   -22.616238400000     1.007825032230
         H           14.236283140000    -7.342710380000   -24.164325090000     1.007825032230
         H           16.625765290000    -7.574585450000   -21.853097070000     1.007825032230
         H           17.983997250000   -11.122273940000   -28.470622590000     1.007825032230
         C           15.654880960000    -8.608748240000   -23.410995580000    12.000000000000
         C           17.558920950000    -9.307465100000   -25.342833350000    12.000000000000

  Charge       = 0
  Multiplicity = 1
  Basis Set: AUG-CC-PVDZ
    Blend: AUG-CC-PVDZ
  Basis Set: (AUG-CC-PVDZ AUX)
    Blend: AUG-CC-PVDZ-JKFIT

    Orbital Energies [Eh]
    ---------------------

    Doubly Occupied:

       1A    -20.629476     2A    -20.552804     3A    -11.396108
       4A    -11.250979     5A     -1.475853     6A     -1.357486
       7A     -1.032999     8A     -0.837930     9A     -0.703065
      10A     -0.688465    11A     -0.657749    12A     -0.576538
      13A     -0.569697    14A     -0.561403    15A     -0.475343
      16A     -0.452434

  @DF-RHF Final Energy:  -227.84408589416284

   => Energetics <=

    Nuclear Repulsion Energy =            121.7484301701213951
    One-Electron Energy =                -552.7483713452411394
    Two-Electron Energy =                 203.1558552809568710
    Total Energy =                       -227.8440858941628449

  Dipole Moment: [D]
     X:    -2.1048      Y:    -0.7191      Z:    -0.2116     Total:     2.2342

    SAPT Results
  --------------------------------------------------------------------------------------------------------
    Electrostatics                  0.00799667 [mEh]       0.00501799 [kcal/mol]       0.02099525 [kJ/mol]
      Elst10,r                      0.00799667 [mEh]       0.00501799 [kcal/mol]       0.02099525 [kJ/mol]

    Exchange                        0.00000000 [mEh]       0.00000000 [kcal/mol]       0.00000000 [kJ/mol]
      Exch10                        0.00000000 [mEh]       0.00000000 [kcal/mol]       0.00000000 [kJ/mol]
      Exch10(S^2)                   0.00000000 [mEh]       0.00000000 [kcal/mol]       0.00000000 [kJ/mol]

    Induction                      -0.00004169 [mEh]      -0.00002616 [kcal/mol]      -0.00010947 [kJ/mol]
      Ind20,r                      -0.00002212 [mEh]      -0.00001388 [kcal/mol]      -0.00005807 [kJ/mol]
      Exch-Ind20,r                  0.00000000 [mEh]       0.00000000 [kcal/mol]       0.00000000 [kJ/mol]
      delta HF,r (2)               -0.00001958 [mEh]      -0.00001228 [kcal/mol]      -0.00005140 [kJ/mol]

    Dispersion                     -0.00030697 [mEh]      -0.00019263 [kcal/mol]      -0.00080595 [kJ/mol]
      Disp20                       -0.00030697 [mEh]      -0.00019263 [kcal/mol]      -0.00080595 [kJ/mol]
      Exch-Disp20                   0.00000000 [mEh]       0.00000000 [kcal/mol]       0.00000000 [kJ/mol]
      Disp20 (SS)                  -0.00015349 [mEh]      -0.00009631 [kcal/mol]      -0.00040298 [kJ/mol]
      Disp20 (OS)                  -0.00015349 [mEh]      -0.00009631 [kcal/mol]      -0.00040298 [kJ/mol]
      Exch-Disp20 (SS)              0.00000000 [mEh]       0.00000000 [kcal/mol]       0.00000000 [kJ/mol]
      Exch-Disp20 (OS)              0.00000000 [mEh]       0.00000000 [kcal/mol]       0.00000000 [kJ/mol]

  Total HF                          0.00795497 [mEh]       0.00499182 [kcal/mol]       0.02088578 [kJ/mol]
  Total SAPT0                       0.00764800 [mEh]       0.00479919 [kcal/mol]       0.02007983 [kJ/mol]

  Special recipe for scaled SAPT0 (see Manual):
    Electrostatics sSAPT0           0.00799667 [mEh]       0.00501799 [kcal/mol]       0.02099525 [kJ/mol]
    Exchange sSAPT0                 0.00000000 [mEh]       0.00000000 [kcal/mol]       0.00000000 [kJ/mol]
    Induction sSAPT0               -0.00004169 [mEh]      -0.00002616 [kcal/mol]      -0.00010947 [kJ/mol]
    Dispersion sSAPT0              -0.00030697 [mEh]      -0.00019263 [kcal/mol]      -0.00080595 [kJ/mol]
  Total sSAPT0                      0.00764800 [mEh]       0.00479919 [kcal/mol]       0.02007983 [kJ/mol]
  --------------------------------------------------------------------------------------------------------

*** Psi4 exiting successfully. Buy a developer a beer!
