                               Psi4 1.4rc3

  ==> Input File <==

--------------------------------------------------------------------------
# PSI4 file produced by CrystaLattE

# Generated from:               acetic_acid.xyz
# Psithon input for N-mer:      2mer-0+80
# Number of atoms per monomer:  [8, 8]
# Number of replicas:           2
# COM priority:                 8.021172481119e-05
# Minimum COM separations:      12.270
# Separation priority:          1.209609325444e-04
# Minimum monomer separations:  10.700
# Cutoff priority:              5.982189530963e-06
# Nuclear repulsion energy:     287.39622720219324

memory 7 GB

molecule Dimer_0_80 {
  O           -5.53102237       2.93940290       1.97762624
  O           -2.40708886       0.90817734       0.04905909
  H           -0.50304887       1.37579205       4.63880908
  H            0.00000000       4.25104285       3.09072238
  H           -2.38948215       4.01916779       5.40195041
  H           -3.74771411       0.47147930      -1.21557512
  C           -1.41859782       2.98500500       3.84405190
  C           -3.32263781       2.28628814       1.91221413
--
  O           -5.53102237     -20.24810357       1.97762624
  O           -2.40708886     -22.27932914       0.04905909
  H           -0.50304887     -21.81171443       4.63880908
  H            0.00000000     -18.93646362       3.09072238
  H           -2.38948215     -19.16833869       5.40195041
  H           -3.74771411     -22.71602718      -1.21557512
  C           -1.41859782     -20.20250148       3.84405190
  C           -3.32263781     -20.90121834       1.91221413
units = au
no_com
no_reorient
}

set {
  e_convergence 10
  d_convergence 10
  scf_type df
  mp2_type df
  cc_type df
  freeze_core true
}

energy('sapt0/aug-cc-pvdz')

--------------------------------------------------------------------------

  //              Dimer HF             //
    Molecular point group: c1
  Charge       = 0
  Multiplicity = 1
  Basis Set: AUG-CC-PVDZ
    Blend: AUG-CC-PVDZ
  Basis Set: (AUG-CC-PVDZ AUX)
    Blend: AUG-CC-PVDZ-JKFIT
  @DF-RHF Final Energy:  -455.68813345187311
    Total Energy =                       -455.6881334518731137
  //            Monomer A HF           //
    Molecular point group: c1
  Multiplicity = 1
  Basis Set: AUG-CC-PVDZ
    Blend: AUG-CC-PVDZ
  Basis Set: (AUG-CC-PVDZ AUX)
    Blend: AUG-CC-PVDZ-JKFIT
  @DF-RHF Final Energy:  -227.84408591586632
    Total Energy =                       -227.8440859158663159
  //            Monomer B HF           //
    Molecular point group: c1

    Geometry (in Bohr), charge = 0, multiplicity = 1:

       Center              X                  Y                   Z               Mass
    ------------   -----------------  -----------------  -----------------  -----------------
      Gh(O)          -5.531022370000     2.939402900000     1.977626240000    15.994914619570
      Gh(O)          -2.407088860000     0.908177340000     0.049059090000    15.994914619570
      Gh(H)          -0.503048870000     1.375792050000     4.638809080000     1.007825032230
      Gh(H)           0.000000000000     4.251042850000     3.090722380000     1.007825032230
      Gh(H)          -2.389482150000     4.019167790000     5.401950410000     1.007825032230
      Gh(H)          -3.747714110000     0.471479300000    -1.215575120000     1.007825032230
      Gh(C)          -1.418597820000     2.985005000000     3.844051900000    12.000000000000
      Gh(C)          -3.322637810000     2.286288140000     1.912214130000    12.000000000000
         O           -5.531022370000   -20.248103570000     1.977626240000    15.994914619570
         O           -2.407088860000   -22.279329140000     0.049059090000    15.994914619570
         H           -0.503048870000   -21.811714430000     4.638809080000     1.007825032230
         H            0.000000000000   -18.936463620000     3.090722380000     1.007825032230
         H           -2.389482150000   -19.168338690000     5.401950410000     1.007825032230
         H           -3.747714110000   -22.716027180000    -1.215575120000     1.007825032230
         C           -1.418597820000   -20.202501480000     3.844051900000    12.000000000000
         C           -3.322637810000   -20.901218340000     1.912214130000    12.000000000000

  Charge       = 0
  Multiplicity = 1
  Basis Set: AUG-CC-PVDZ
    Blend: AUG-CC-PVDZ
  Basis Set: (AUG-CC-PVDZ AUX)
    Blend: AUG-CC-PVDZ-JKFIT

    Orbital Energies [Eh]
    ---------------------

    Doubly Occupied:

       1A    -20.629476     2A    -20.552804     3A    -11.396108
       4A    -11.250979     5A     -1.475853     6A     -1.357486
       7A     -1.032999     8A     -0.837930     9A     -0.703065
      10A     -0.688465    11A     -0.657749    12A     -0.576538
      13A     -0.569697    14A     -0.561403    15A     -0.475343
      16A     -0.452434

  @DF-RHF Final Energy:  -227.84408591991630

   => Energetics <=

    Nuclear Repulsion Energy =            121.7484301522181909
    One-Electron Energy =                -552.7483713218121011
    Two-Electron Energy =                 203.1558552496776144
    Total Energy =                       -227.8440859199162958

  Dipole Moment: [D]
     X:     2.1048      Y:    -0.7191      Z:    -0.2116     Total:     2.2342

    SAPT Results
  --------------------------------------------------------------------------------------------------------
    Electrostatics                  0.03862821 [mEh]       0.02423957 [kcal/mol]       0.10141836 [kJ/mol]
      Elst10,r                      0.03862821 [mEh]       0.02423957 [kcal/mol]       0.10141836 [kJ/mol]

    Exchange                        0.00000002 [mEh]       0.00000001 [kcal/mol]       0.00000005 [kJ/mol]
      Exch10                        0.00000002 [mEh]       0.00000001 [kcal/mol]       0.00000005 [kJ/mol]
      Exch10(S^2)                   0.00000002 [mEh]       0.00000001 [kcal/mol]       0.00000005 [kJ/mol]

    Induction                      -0.00024432 [mEh]      -0.00015331 [kcal/mol]      -0.00064147 [kJ/mol]
      Ind20,r                      -0.00019733 [mEh]      -0.00012382 [kcal/mol]      -0.00051808 [kJ/mol]
      Exch-Ind20,r                  0.00000005 [mEh]       0.00000003 [kcal/mol]       0.00000013 [kJ/mol]
      delta HF,r (2)               -0.00004705 [mEh]      -0.00002952 [kcal/mol]      -0.00012352 [kJ/mol]

    Dispersion                     -0.00345467 [mEh]      -0.00216784 [kcal/mol]      -0.00907024 [kJ/mol]
      Disp20                       -0.00345468 [mEh]      -0.00216784 [kcal/mol]      -0.00907025 [kJ/mol]
      Exch-Disp20                   0.00000000 [mEh]       0.00000000 [kcal/mol]       0.00000001 [kJ/mol]
      Disp20 (SS)                  -0.00172734 [mEh]      -0.00108392 [kcal/mol]      -0.00453512 [kJ/mol]
      Disp20 (OS)                  -0.00172734 [mEh]      -0.00108392 [kcal/mol]      -0.00453512 [kJ/mol]
      Exch-Disp20 (SS)              0.00000000 [mEh]       0.00000000 [kcal/mol]       0.00000001 [kJ/mol]
      Exch-Disp20 (OS)              0.00000000 [mEh]       0.00000000 [kcal/mol]       0.00000000 [kJ/mol]

  Total HF                          0.03838391 [mEh]       0.02408627 [kcal/mol]       0.10077694 [kJ/mol]
  Total SAPT0                       0.03492924 [mEh]       0.02191843 [kcal/mol]       0.09170670 [kJ/mol]

  Special recipe for scaled SAPT0 (see Manual):
    Electrostatics sSAPT0           0.03862821 [mEh]       0.02423957 [kcal/mol]       0.10141836 [kJ/mol]
    Exchange sSAPT0                 0.00000002 [mEh]       0.00000001 [kcal/mol]       0.00000005 [kJ/mol]
    Induction sSAPT0               -0.00024432 [mEh]      -0.00015331 [kcal/mol]      -0.00064147 [kJ/mol]
    Dispersion sSAPT0              -0.00345467 [mEh]      -0.00216784 [kcal/mol]      -0.00907024 [kJ/mol]
  Total sSAPT0                      0.03492924 [mEh]       0.02191843 [kcal/mol]       0.09170670 [kJ/mol]
  --------------------------------------------------------------------------------------------------------

*** Psi4 exiting successfully. Buy a developer a beer!
