                               Psi4 1.4rc3

  ==> Input File <==

--------------------------------------------------------------------------
# PSI4 file produced by CrystaLattE

# Generated from:               acetic_acid.xyz
# Psithon input for N-mer:      2mer-0+306
# Number of atoms per monomer:  [8, 8]
# Number of replicas:           2
# COM priority:                 3.538121865239e-05
# Minimum COM separations:      16.119
# Separation priority:          5.766477605584e-05
# Minimum monomer separations:  13.697
# Cutoff priority:              2.227823665512e-06
# Nuclear repulsion energy:     276.9809137618827

memory 7 GB

molecule Dimer_0_306 {
  O           -5.53102237       2.93940290       1.97762624
  O           -2.40708886       0.90817734       0.04905909
  H           -0.50304887       1.37579205       4.63880908
  H            0.00000000       4.25104285       3.09072238
  H           -2.38948215       4.01916779       5.40195041
  H           -3.74771411       0.47147930      -1.21557512
  C           -1.41859782       2.98500500       3.84405190
  C           -3.32263781       2.28628814       1.91221413
--
  O          -30.53758190      -0.92518151       7.42863574
  O          -33.66151541      -2.95640708       5.50006858
  H          -35.56555540      -2.48879236      10.08981858
  H          -36.06860427       0.38645844       8.54173188
  H          -33.67912212       0.15458338      10.85295990
  H          -32.32089016      -3.39310511       4.23543438
  C          -34.65000644      -0.87957941       9.29506139
  C          -32.74596646      -1.57829627       7.36322363
units = au
no_com
no_reorient
}

set {
  e_convergence 10
  d_convergence 10
  scf_type df
  mp2_type df
  cc_type df
  freeze_core true
}

energy('sapt0/aug-cc-pvdz')

--------------------------------------------------------------------------

  //              Dimer HF             //
    Molecular point group: c1
  Charge       = 0
  Multiplicity = 1
  Basis Set: AUG-CC-PVDZ
    Blend: AUG-CC-PVDZ
  Basis Set: (AUG-CC-PVDZ AUX)
    Blend: AUG-CC-PVDZ-JKFIT
  @DF-RHF Final Energy:  -455.68808315434597
    Total Energy =                       -455.6880831543459749
  //            Monomer A HF           //
    Molecular point group: c1
  Multiplicity = 1
  Basis Set: AUG-CC-PVDZ
    Blend: AUG-CC-PVDZ
  Basis Set: (AUG-CC-PVDZ AUX)
    Blend: AUG-CC-PVDZ-JKFIT
  @DF-RHF Final Energy:  -227.84408589665387
    Total Energy =                       -227.8440858966538656
  //            Monomer B HF           //
    Molecular point group: c1

    Geometry (in Bohr), charge = 0, multiplicity = 1:

       Center              X                  Y                   Z               Mass
    ------------   -----------------  -----------------  -----------------  -----------------
      Gh(O)          -5.531022370000     2.939402900000     1.977626240000    15.994914619570
      Gh(O)          -2.407088860000     0.908177340000     0.049059090000    15.994914619570
      Gh(H)          -0.503048870000     1.375792050000     4.638809080000     1.007825032230
      Gh(H)           0.000000000000     4.251042850000     3.090722380000     1.007825032230
      Gh(H)          -2.389482150000     4.019167790000     5.401950410000     1.007825032230
      Gh(H)          -3.747714110000     0.471479300000    -1.215575120000     1.007825032230
      Gh(C)          -1.418597820000     2.985005000000     3.844051900000    12.000000000000
      Gh(C)          -3.322637810000     2.286288140000     1.912214130000    12.000000000000
         O          -30.537581900000    -0.925181510000     7.428635740000    15.994914619570
         O          -33.661515410000    -2.956407080000     5.500068580000    15.994914619570
         H          -35.565555400000    -2.488792360000    10.089818580000     1.007825032230
         H          -36.068604270000     0.386458440000     8.541731880000     1.007825032230
         H          -33.679122120000     0.154583380000    10.852959900000     1.007825032230
         H          -32.320890160000    -3.393105110000     4.235434380000     1.007825032230
         C          -34.650006440000    -0.879579410000     9.295061390000    12.000000000000
         C          -32.745966460000    -1.578296270000     7.363223630000    12.000000000000

  Charge       = 0
  Multiplicity = 1
  Basis Set: AUG-CC-PVDZ
    Blend: AUG-CC-PVDZ
  Basis Set: (AUG-CC-PVDZ AUX)
    Blend: AUG-CC-PVDZ-JKFIT

    Orbital Energies [Eh]
    ---------------------

    Doubly Occupied:

       1A    -20.629476     2A    -20.552804     3A    -11.396108
       4A    -11.250979     5A     -1.475853     6A     -1.357486
       7A     -1.032999     8A     -0.837930     9A     -0.703065
      10A     -0.688465    11A     -0.657749    12A     -0.576538
      13A     -0.569697    14A     -0.561403    15A     -0.475343
      16A     -0.452434

  @DF-RHF Final Energy:  -227.84408589787807

   => Energetics <=

    Nuclear Repulsion Energy =            121.7484301737502079
    One-Electron Energy =                -552.7483713708010100
    Two-Electron Energy =                 203.1558552991727424
    Total Energy =                       -227.8440858978780739

  Dipole Moment: [D]
     X:    -2.1048      Y:    -0.7191      Z:    -0.2116     Total:     2.2342

    SAPT Results
  --------------------------------------------------------------------------------------------------------
    Electrostatics                  0.08884524 [mEh]       0.05575123 [kcal/mol]       0.23326314 [kJ/mol]
      Elst10,r                      0.08884524 [mEh]       0.05575123 [kcal/mol]       0.23326314 [kJ/mol]

    Exchange                       -0.00000000 [mEh]      -0.00000000 [kcal/mol]      -0.00000000 [kJ/mol]
      Exch10                       -0.00000000 [mEh]      -0.00000000 [kcal/mol]      -0.00000000 [kJ/mol]
      Exch10(S^2)                  -0.00000000 [mEh]      -0.00000000 [kcal/mol]      -0.00000000 [kJ/mol]

    Induction                      -0.00020505 [mEh]      -0.00012867 [kcal/mol]      -0.00053837 [kJ/mol]
      Ind20,r                      -0.00020959 [mEh]      -0.00013152 [kcal/mol]      -0.00055028 [kJ/mol]
      Exch-Ind20,r                  0.00000000 [mEh]       0.00000000 [kcal/mol]       0.00000000 [kJ/mol]
      delta HF,r (2)                0.00000454 [mEh]       0.00000285 [kcal/mol]       0.00001191 [kJ/mol]

    Dispersion                     -0.00075843 [mEh]      -0.00047592 [kcal/mol]      -0.00199126 [kJ/mol]
      Disp20                       -0.00075843 [mEh]      -0.00047592 [kcal/mol]      -0.00199126 [kJ/mol]
      Exch-Disp20                   0.00000000 [mEh]       0.00000000 [kcal/mol]       0.00000000 [kJ/mol]
      Disp20 (SS)                  -0.00037922 [mEh]      -0.00023796 [kcal/mol]      -0.00099563 [kJ/mol]
      Disp20 (OS)                  -0.00037922 [mEh]      -0.00023796 [kcal/mol]      -0.00099563 [kJ/mol]
      Exch-Disp20 (SS)              0.00000000 [mEh]       0.00000000 [kcal/mol]       0.00000000 [kJ/mol]
      Exch-Disp20 (OS)              0.00000000 [mEh]       0.00000000 [kcal/mol]       0.00000000 [kJ/mol]

  Total HF                          0.08864019 [mEh]       0.05562256 [kcal/mol]       0.23272478 [kJ/mol]
  Total SAPT0                       0.08788175 [mEh]       0.05514663 [kcal/mol]       0.23073352 [kJ/mol]

  Special recipe for scaled SAPT0 (see Manual):
    Electrostatics sSAPT0           0.08884524 [mEh]       0.05575123 [kcal/mol]       0.23326314 [kJ/mol]
    Exchange sSAPT0                -0.00000000 [mEh]      -0.00000000 [kcal/mol]      -0.00000000 [kJ/mol]
    Induction sSAPT0               -0.00020505 [mEh]      -0.00012867 [kcal/mol]      -0.00053837 [kJ/mol]
    Dispersion sSAPT0              -0.00075843 [mEh]      -0.00047592 [kcal/mol]      -0.00199126 [kJ/mol]
  Total sSAPT0                      0.08788175 [mEh]       0.05514663 [kcal/mol]       0.23073352 [kJ/mol]
  --------------------------------------------------------------------------------------------------------

*** Psi4 exiting successfully. Buy a developer a beer!
