                               Psi4 1.4rc3

  ==> Input File <==

--------------------------------------------------------------------------
# PSI4 file produced by CrystaLattE

# Generated from:               acetic_acid.xyz
# Psithon input for N-mer:      2mer-0+19
# Number of atoms per monomer:  [8, 8]
# Number of replicas:           2
# COM priority:                 4.189859429064e-04
# Minimum COM separations:      7.072
# Separation priority:          8.603998751726e-04
# Minimum monomer separations:  5.564
# Cutoff priority:              8.183400097571e-05
# Nuclear repulsion energy:     318.5206333906827

memory 7 GB

molecule Dimer_0_19 {
  O           -5.53102237       2.93940290       1.97762624
  O           -2.40708886       0.90817734       0.04905909
  H           -0.50304887       1.37579205       4.63880908
  H            0.00000000       4.25104285       3.09072238
  H           -2.38948215       4.01916779       5.40195041
  H           -3.74771411       0.47147930      -1.21557512
  C           -1.41859782       2.98500500       3.84405190
  C           -3.32263781       2.28628814       1.91221413
--
  O           -5.53102237      10.66857173      -8.92439275
  O           -2.40708886       8.63734616     -10.85295990
  H           -0.50304887       9.10496088      -6.26320991
  H            0.00000000      11.98021168      -7.81129661
  H           -2.38948215      11.74833662      -5.50006858
  H           -3.74771411       8.20064812     -12.11759411
  C           -1.41859782      10.71417383      -7.05796709
  C           -3.32263781      10.01545696      -8.98980486
units = au
no_com
no_reorient
}

set {
  e_convergence 10
  d_convergence 10
  scf_type df
  mp2_type df
  cc_type df
  freeze_core true
}

energy('sapt0/aug-cc-pvdz')

--------------------------------------------------------------------------

  //              Dimer HF             //
    Molecular point group: c1
  Charge       = 0
  Multiplicity = 1
  Basis Set: AUG-CC-PVDZ
    Blend: AUG-CC-PVDZ
  Basis Set: (AUG-CC-PVDZ AUX)
    Blend: AUG-CC-PVDZ-JKFIT
  @DF-RHF Final Energy:  -455.68785983148518
    Total Energy =                       -455.6878598314851843
  //            Monomer A HF           //
    Molecular point group: c1
  Multiplicity = 1
  Basis Set: AUG-CC-PVDZ
    Blend: AUG-CC-PVDZ
  Basis Set: (AUG-CC-PVDZ AUX)
    Blend: AUG-CC-PVDZ-JKFIT
  @DF-RHF Final Energy:  -227.84410826678726
    Total Energy =                       -227.8441082667872593
  //            Monomer B HF           //
    Molecular point group: c1

    Geometry (in Bohr), charge = 0, multiplicity = 1:

       Center              X                  Y                   Z               Mass
    ------------   -----------------  -----------------  -----------------  -----------------
      Gh(O)          -5.531022370000     2.939402900000     1.977626240000    15.994914619570
      Gh(O)          -2.407088860000     0.908177340000     0.049059090000    15.994914619570
      Gh(H)          -0.503048870000     1.375792050000     4.638809080000     1.007825032230
      Gh(H)           0.000000000000     4.251042850000     3.090722380000     1.007825032230
      Gh(H)          -2.389482150000     4.019167790000     5.401950410000     1.007825032230
      Gh(H)          -3.747714110000     0.471479300000    -1.215575120000     1.007825032230
      Gh(C)          -1.418597820000     2.985005000000     3.844051900000    12.000000000000
      Gh(C)          -3.322637810000     2.286288140000     1.912214130000    12.000000000000
         O           -5.531022370000    10.668571730000    -8.924392750000    15.994914619570
         O           -2.407088860000     8.637346160000   -10.852959900000    15.994914619570
         H           -0.503048870000     9.104960880000    -6.263209910000     1.007825032230
         H            0.000000000000    11.980211680000    -7.811296610000     1.007825032230
         H           -2.389482150000    11.748336620000    -5.500068580000     1.007825032230
         H           -3.747714110000     8.200648120000   -12.117594110000     1.007825032230
         C           -1.418597820000    10.714173830000    -7.057967090000    12.000000000000
         C           -3.322637810000    10.015456960000    -8.989804860000    12.000000000000

  Charge       = 0
  Multiplicity = 1
  Basis Set: AUG-CC-PVDZ
    Blend: AUG-CC-PVDZ
  Basis Set: (AUG-CC-PVDZ AUX)
    Blend: AUG-CC-PVDZ-JKFIT

    Orbital Energies [Eh]
    ---------------------

    Doubly Occupied:

       1A    -20.629477     2A    -20.552812     3A    -11.396106
       4A    -11.250961     5A     -1.475852     6A     -1.357486
       7A     -1.032999     8A     -0.837929     9A     -0.703065
      10A     -0.688464    11A     -0.657748    12A     -0.576537
      13A     -0.569697    14A     -0.561402    15A     -0.475346
      16A     -0.452434

  @DF-RHF Final Energy:  -227.84410477654973

   => Energetics <=

    Nuclear Repulsion Energy =            121.7484301357801826
    One-Electron Energy =                -552.7484378250388772
    Two-Electron Energy =                 203.1559029127089957
    Total Energy =                       -227.8441047765497274

  Dipole Moment: [D]
     X:     2.1045      Y:    -0.7190      Z:    -0.2114     Total:     2.2339

    SAPT Results
  --------------------------------------------------------------------------------------------------------
    Electrostatics                  0.35925337 [mEh]       0.22543489 [kcal/mol]       0.94321958 [kJ/mol]
      Elst10,r                      0.35925337 [mEh]       0.22543489 [kcal/mol]       0.94321958 [kJ/mol]

    Exchange                        0.00002913 [mEh]       0.00001828 [kcal/mol]       0.00007649 [kJ/mol]
      Exch10                        0.00002913 [mEh]       0.00001828 [kcal/mol]       0.00007649 [kJ/mol]
      Exch10(S^2)                   0.00002913 [mEh]       0.00001828 [kcal/mol]       0.00007649 [kJ/mol]

    Induction                      -0.00607065 [mEh]      -0.00380939 [kcal/mol]      -0.01593848 [kJ/mol]
      Ind20,r                      -0.00594567 [mEh]      -0.00373096 [kcal/mol]      -0.01561035 [kJ/mol]
      Exch-Ind20,r                  0.00002876 [mEh]       0.00001805 [kcal/mol]       0.00007551 [kJ/mol]
      delta HF,r (2)               -0.00015374 [mEh]      -0.00009647 [kcal/mol]      -0.00040364 [kJ/mol]

    Dispersion                     -0.09840713 [mEh]      -0.06175140 [kcal/mol]      -0.25836788 [kJ/mol]
      Disp20                       -0.09842059 [mEh]      -0.06175986 [kcal/mol]      -0.25840323 [kJ/mol]
      Exch-Disp20                   0.00001347 [mEh]       0.00000845 [kcal/mol]       0.00003536 [kJ/mol]
      Disp20 (SS)                  -0.04921030 [mEh]      -0.03087993 [kcal/mol]      -0.12920162 [kJ/mol]
      Disp20 (OS)                  -0.04921030 [mEh]      -0.03087993 [kcal/mol]      -0.12920162 [kJ/mol]
      Exch-Disp20 (SS)              0.00001098 [mEh]       0.00000689 [kcal/mol]       0.00002883 [kJ/mol]
      Exch-Disp20 (OS)              0.00000249 [mEh]       0.00000156 [kcal/mol]       0.00000653 [kJ/mol]

  Total HF                          0.35321185 [mEh]       0.22164378 [kcal/mol]       0.92735759 [kJ/mol]
  Total SAPT0                       0.25480472 [mEh]       0.15989238 [kcal/mol]       0.66898971 [kJ/mol]

  Special recipe for scaled SAPT0 (see Manual):
    Electrostatics sSAPT0           0.35925337 [mEh]       0.22543489 [kcal/mol]       0.94321958 [kJ/mol]
    Exchange sSAPT0                 0.00002913 [mEh]       0.00001828 [kcal/mol]       0.00007649 [kJ/mol]
    Induction sSAPT0               -0.00607065 [mEh]      -0.00380939 [kcal/mol]      -0.01593848 [kJ/mol]
    Dispersion sSAPT0              -0.09840713 [mEh]      -0.06175140 [kcal/mol]      -0.25836788 [kJ/mol]
  Total sSAPT0                      0.25480472 [mEh]       0.15989238 [kcal/mol]       0.66898971 [kJ/mol]
  --------------------------------------------------------------------------------------------------------

*** Psi4 exiting successfully. Buy a developer a beer!
