                               Psi4 1.4rc3

  ==> Input File <==

--------------------------------------------------------------------------
# PSI4 file produced by CrystaLattE

# Generated from:               acetic_acid.xyz
# Psithon input for N-mer:      2mer-0+363
# Number of atoms per monomer:  [8, 8]
# Number of replicas:           2
# COM priority:                 2.022730914797e-05
# Minimum COM separations:      19.422
# Separation priority:          3.338429192040e-05
# Minimum monomer separations:  16.434
# Cutoff priority:              1.074953205403e-06
# Nuclear repulsion energy:     271.41807960467247

memory 7 GB

molecule Dimer_0_363 {
  O           -5.53102237       2.93940290       1.97762624
  O           -2.40708886       0.90817734       0.04905909
  H           -0.50304887       1.37579205       4.63880908
  H            0.00000000       4.25104285       3.09072238
  H           -2.38948215       4.01916779       5.40195041
  H           -3.74771411       0.47147930      -1.21557512
  C           -1.41859782       2.98500500       3.84405190
  C           -3.32263781       2.28628814       1.91221413
--
  O           19.62142133     -12.51893475      23.78166423
  O           22.74535484     -14.55016031      21.85309707
  H           24.64939483     -14.08254560      26.44284706
  H           25.15244370     -11.20729480      24.89476036
  H           22.76296155     -11.43916986      27.20598839
  H           21.40472959     -14.98685835      20.58846286
  C           23.73384588     -12.47333265      25.64808988
  C           21.82980589     -13.17204951      23.71625211
units = au
no_com
no_reorient
}

set {
  e_convergence 10
  d_convergence 10
  scf_type df
  mp2_type df
  cc_type df
  freeze_core true
}

energy('sapt0/aug-cc-pvdz')

--------------------------------------------------------------------------

  //              Dimer HF             //
    Molecular point group: c1
  Charge       = 0
  Multiplicity = 1
  Basis Set: AUG-CC-PVDZ
    Blend: AUG-CC-PVDZ
  Basis Set: (AUG-CC-PVDZ AUX)
    Blend: AUG-CC-PVDZ-JKFIT
  @DF-RHF Final Energy:  -455.68818363279547
    Total Energy =                       -455.6881836327954716
  //            Monomer A HF           //
    Molecular point group: c1
  Multiplicity = 1
  Basis Set: AUG-CC-PVDZ
    Blend: AUG-CC-PVDZ
  Basis Set: (AUG-CC-PVDZ AUX)
    Blend: AUG-CC-PVDZ-JKFIT
  @DF-RHF Final Energy:  -227.84408589378413
    Total Energy =                       -227.8440858937841256
  //            Monomer B HF           //
    Molecular point group: c1

    Geometry (in Bohr), charge = 0, multiplicity = 1:

       Center              X                  Y                   Z               Mass
    ------------   -----------------  -----------------  -----------------  -----------------
      Gh(O)          -5.531022370000     2.939402900000     1.977626240000    15.994914619570
      Gh(O)          -2.407088860000     0.908177340000     0.049059090000    15.994914619570
      Gh(H)          -0.503048870000     1.375792050000     4.638809080000     1.007825032230
      Gh(H)           0.000000000000     4.251042850000     3.090722380000     1.007825032230
      Gh(H)          -2.389482150000     4.019167790000     5.401950410000     1.007825032230
      Gh(H)          -3.747714110000     0.471479300000    -1.215575120000     1.007825032230
      Gh(C)          -1.418597820000     2.985005000000     3.844051900000    12.000000000000
      Gh(C)          -3.322637810000     2.286288140000     1.912214130000    12.000000000000
         O           19.621421330000   -12.518934750000    23.781664230000    15.994914619570
         O           22.745354840000   -14.550160310000    21.853097070000    15.994914619570
         H           24.649394830000   -14.082545600000    26.442847060000     1.007825032230
         H           25.152443700000   -11.207294800000    24.894760360000     1.007825032230
         H           22.762961550000   -11.439169860000    27.205988390000     1.007825032230
         H           21.404729590000   -14.986858350000    20.588462860000     1.007825032230
         C           23.733845880000   -12.473332650000    25.648089880000    12.000000000000
         C           21.829805890000   -13.172049510000    23.716252110000    12.000000000000

  Charge       = 0
  Multiplicity = 1
  Basis Set: AUG-CC-PVDZ
    Blend: AUG-CC-PVDZ
  Basis Set: (AUG-CC-PVDZ AUX)
    Blend: AUG-CC-PVDZ-JKFIT

    Orbital Energies [Eh]
    ---------------------

    Doubly Occupied:

       1A    -20.629476     2A    -20.552804     3A    -11.396108
       4A    -11.250979     5A     -1.475853     6A     -1.357486
       7A     -1.032999     8A     -0.837930     9A     -0.703065
      10A     -0.688465    11A     -0.657749    12A     -0.576538
      13A     -0.569697    14A     -0.561403    15A     -0.475343
      16A     -0.452434

  @DF-RHF Final Energy:  -227.84408589657770

   => Energetics <=

    Nuclear Repulsion Energy =            121.7484302024618756
    One-Electron Energy =                -552.7483714265003982
    Two-Electron Energy =                 203.1558553274608414
    Total Energy =                       -227.8440858965776954

  Dipole Moment: [D]
     X:     2.1048      Y:    -0.7191      Z:    -0.2116     Total:     2.2342

    SAPT Results
  --------------------------------------------------------------------------------------------------------
    Electrostatics                 -0.01179957 [mEh]      -0.00740434 [kcal/mol]      -0.03097977 [kJ/mol]
      Elst10,r                     -0.01179957 [mEh]      -0.00740434 [kcal/mol]      -0.03097977 [kJ/mol]

    Exchange                       -0.00000000 [mEh]      -0.00000000 [kcal/mol]      -0.00000000 [kJ/mol]
      Exch10                       -0.00000000 [mEh]      -0.00000000 [kcal/mol]      -0.00000000 [kJ/mol]
      Exch10(S^2)                  -0.00000000 [mEh]      -0.00000000 [kcal/mol]      -0.00000000 [kJ/mol]

    Induction                      -0.00004286 [mEh]      -0.00002690 [kcal/mol]      -0.00011253 [kJ/mol]
      Ind20,r                      -0.00002942 [mEh]      -0.00001846 [kcal/mol]      -0.00007724 [kJ/mol]
      Exch-Ind20,r                  0.00000000 [mEh]       0.00000000 [kcal/mol]       0.00000000 [kJ/mol]
      delta HF,r (2)               -0.00001344 [mEh]      -0.00000844 [kcal/mol]      -0.00003530 [kJ/mol]

    Dispersion                     -0.00025071 [mEh]      -0.00015732 [kcal/mol]      -0.00065825 [kJ/mol]
      Disp20                       -0.00025071 [mEh]      -0.00015732 [kcal/mol]      -0.00065825 [kJ/mol]
      Exch-Disp20                   0.00000000 [mEh]       0.00000000 [kcal/mol]       0.00000000 [kJ/mol]
      Disp20 (SS)                  -0.00012536 [mEh]      -0.00007866 [kcal/mol]      -0.00032912 [kJ/mol]
      Disp20 (OS)                  -0.00012536 [mEh]      -0.00007866 [kcal/mol]      -0.00032912 [kJ/mol]
      Exch-Disp20 (SS)              0.00000000 [mEh]       0.00000000 [kcal/mol]       0.00000000 [kJ/mol]
      Exch-Disp20 (OS)              0.00000000 [mEh]       0.00000000 [kcal/mol]       0.00000000 [kJ/mol]

  Total HF                         -0.01184243 [mEh]      -0.00743124 [kcal/mol]      -0.03109231 [kJ/mol]
  Total SAPT0                      -0.01209315 [mEh]      -0.00758856 [kcal/mol]      -0.03175055 [kJ/mol]

  Special recipe for scaled SAPT0 (see Manual):
    Electrostatics sSAPT0          -0.01179957 [mEh]      -0.00740434 [kcal/mol]      -0.03097977 [kJ/mol]
    Exchange sSAPT0                -0.00000000 [mEh]      -0.00000000 [kcal/mol]      -0.00000000 [kJ/mol]
    Induction sSAPT0               -0.00004286 [mEh]      -0.00002690 [kcal/mol]      -0.00011253 [kJ/mol]
    Dispersion sSAPT0              -0.00025071 [mEh]      -0.00015732 [kcal/mol]      -0.00065825 [kJ/mol]
  Total sSAPT0                     -0.01209315 [mEh]      -0.00758856 [kcal/mol]      -0.03175055 [kJ/mol]
  --------------------------------------------------------------------------------------------------------

*** Psi4 exiting successfully. Buy a developer a beer!
