                               Psi4 1.4rc3

  ==> Input File <==

--------------------------------------------------------------------------
# PSI4 file produced by CrystaLattE

# Generated from:               acetic_acid.xyz
# Psithon input for N-mer:      2mer-0+285
# Number of atoms per monomer:  [8, 8]
# Number of replicas:           2
# COM priority:                 2.946799537407e-05
# Minimum COM separations:      17.132
# Separation priority:          4.981564913552e-05
# Minimum monomer separations:  14.382
# Cutoff priority:              1.832965926564e-06
# Nuclear repulsion energy:     275.0679661273102

memory 7 GB

molecule Dimer_0_285 {
  O           -5.53102237       2.93940290       1.97762624
  O           -2.40708886       0.90817734       0.04905909
  H           -0.50304887       1.37579205       4.63880908
  H            0.00000000       4.25104285       3.09072238
  H           -2.38948215       4.01916779       5.40195041
  H           -3.74771411       0.47147930      -1.21557512
  C           -1.41859782       2.98500500       3.84405190
  C           -3.32263781       2.28628814       1.91221413
--
  O          -17.96136005       4.94434930     -25.27742123
  O          -21.08529356       6.97557487     -27.20598839
  H          -22.98933354       6.50796015     -22.61623840
  H          -23.49238242       3.63270935     -24.16432509
  H          -21.10290027       3.86458441     -21.85309707
  H          -19.74466831       7.41227290     -28.47062259
  C          -22.07378459       4.89874720     -23.41099558
  C          -20.16974460       5.59746406     -25.34283335
units = au
no_com
no_reorient
}

set {
  e_convergence 10
  d_convergence 10
  scf_type df
  mp2_type df
  cc_type df
  freeze_core true
}

energy('sapt0/aug-cc-pvdz')

--------------------------------------------------------------------------

  //              Dimer HF             //
    Molecular point group: c1
  Charge       = 0
  Multiplicity = 1
  Basis Set: AUG-CC-PVDZ
    Blend: AUG-CC-PVDZ
  Basis Set: (AUG-CC-PVDZ AUX)
    Blend: AUG-CC-PVDZ-JKFIT
  @DF-RHF Final Energy:  -455.68819674358235
    Total Energy =                       -455.6881967435823526
  //            Monomer A HF           //
    Molecular point group: c1
  Multiplicity = 1
  Basis Set: AUG-CC-PVDZ
    Blend: AUG-CC-PVDZ
  Basis Set: (AUG-CC-PVDZ AUX)
    Blend: AUG-CC-PVDZ-JKFIT
  @DF-RHF Final Energy:  -227.84408589728656
    Total Energy =                       -227.8440858972865612
  //            Monomer B HF           //
    Molecular point group: c1

    Geometry (in Bohr), charge = 0, multiplicity = 1:

       Center              X                  Y                   Z               Mass
    ------------   -----------------  -----------------  -----------------  -----------------
      Gh(O)          -5.531022370000     2.939402900000     1.977626240000    15.994914619570
      Gh(O)          -2.407088860000     0.908177340000     0.049059090000    15.994914619570
      Gh(H)          -0.503048870000     1.375792050000     4.638809080000     1.007825032230
      Gh(H)           0.000000000000     4.251042850000     3.090722380000     1.007825032230
      Gh(H)          -2.389482150000     4.019167790000     5.401950410000     1.007825032230
      Gh(H)          -3.747714110000     0.471479300000    -1.215575120000     1.007825032230
      Gh(C)          -1.418597820000     2.985005000000     3.844051900000    12.000000000000
      Gh(C)          -3.322637810000     2.286288140000     1.912214130000    12.000000000000
         O          -17.961360050000     4.944349300000   -25.277421230000    15.994914619570
         O          -21.085293560000     6.975574870000   -27.205988390000    15.994914619570
         H          -22.989333540000     6.507960150000   -22.616238400000     1.007825032230
         H          -23.492382420000     3.632709350000   -24.164325090000     1.007825032230
         H          -21.102900270000     3.864584410000   -21.853097070000     1.007825032230
         H          -19.744668310000     7.412272900000   -28.470622590000     1.007825032230
         C          -22.073784590000     4.898747200000   -23.410995580000    12.000000000000
         C          -20.169744600000     5.597464060000   -25.342833350000    12.000000000000

  Charge       = 0
  Multiplicity = 1
  Basis Set: AUG-CC-PVDZ
    Blend: AUG-CC-PVDZ
  Basis Set: (AUG-CC-PVDZ AUX)
    Blend: AUG-CC-PVDZ-JKFIT

    Orbital Energies [Eh]
    ---------------------

    Doubly Occupied:

       1A    -20.629476     2A    -20.552804     3A    -11.396108
       4A    -11.250979     5A     -1.475853     6A     -1.357486
       7A     -1.032999     8A     -0.837930     9A     -0.703065
      10A     -0.688465    11A     -0.657749    12A     -0.576538
      13A     -0.569697    14A     -0.561403    15A     -0.475343
      16A     -0.452434

  @DF-RHF Final Energy:  -227.84408589533246

   => Energetics <=

    Nuclear Repulsion Energy =            121.7484302412195376
    One-Electron Energy =                -552.7483714815572284
    Two-Electron Energy =                 203.1558553450052500
    Total Energy =                       -227.8440858953324550

  Dipole Moment: [D]
     X:    -2.1048      Y:     0.7191      Z:    -0.2116     Total:     2.2342

    SAPT Results
  --------------------------------------------------------------------------------------------------------
    Electrostatics                 -0.02487987 [mEh]      -0.01561235 [kcal/mol]      -0.06532209 [kJ/mol]
      Elst10,r                     -0.02487987 [mEh]      -0.01561235 [kcal/mol]      -0.06532209 [kJ/mol]

    Exchange                       -0.00000000 [mEh]      -0.00000000 [kcal/mol]      -0.00000000 [kJ/mol]
      Exch10                       -0.00000000 [mEh]      -0.00000000 [kcal/mol]      -0.00000000 [kJ/mol]
      Exch10(S^2)                  -0.00000000 [mEh]      -0.00000000 [kcal/mol]      -0.00000000 [kJ/mol]

    Induction                      -0.00007109 [mEh]      -0.00004461 [kcal/mol]      -0.00018666 [kJ/mol]
      Ind20,r                      -0.00005246 [mEh]      -0.00003292 [kcal/mol]      -0.00013774 [kJ/mol]
      Exch-Ind20,r                  0.00000000 [mEh]       0.00000000 [kcal/mol]       0.00000000 [kJ/mol]
      delta HF,r (2)               -0.00001863 [mEh]      -0.00001169 [kcal/mol]      -0.00004892 [kJ/mol]

    Dispersion                     -0.00050379 [mEh]      -0.00031614 [kcal/mol]      -0.00132271 [kJ/mol]
      Disp20                       -0.00050379 [mEh]      -0.00031614 [kcal/mol]      -0.00132271 [kJ/mol]
      Exch-Disp20                   0.00000000 [mEh]       0.00000000 [kcal/mol]       0.00000000 [kJ/mol]
      Disp20 (SS)                  -0.00025190 [mEh]      -0.00015807 [kcal/mol]      -0.00066136 [kJ/mol]
      Disp20 (OS)                  -0.00025190 [mEh]      -0.00015807 [kcal/mol]      -0.00066136 [kJ/mol]
      Exch-Disp20 (SS)              0.00000000 [mEh]       0.00000000 [kcal/mol]       0.00000000 [kJ/mol]
      Exch-Disp20 (OS)              0.00000000 [mEh]       0.00000000 [kcal/mol]       0.00000000 [kJ/mol]

  Total HF                         -0.02495096 [mEh]      -0.01565697 [kcal/mol]      -0.06550875 [kJ/mol]
  Total SAPT0                      -0.02545476 [mEh]      -0.01597310 [kcal/mol]      -0.06683146 [kJ/mol]

  Special recipe for scaled SAPT0 (see Manual):
    Electrostatics sSAPT0          -0.02487987 [mEh]      -0.01561235 [kcal/mol]      -0.06532209 [kJ/mol]
    Exchange sSAPT0                -0.00000000 [mEh]      -0.00000000 [kcal/mol]      -0.00000000 [kJ/mol]
    Induction sSAPT0               -0.00007109 [mEh]      -0.00004461 [kcal/mol]      -0.00018666 [kJ/mol]
    Dispersion sSAPT0              -0.00050379 [mEh]      -0.00031614 [kcal/mol]      -0.00132271 [kJ/mol]
  Total sSAPT0                     -0.02545476 [mEh]      -0.01597310 [kcal/mol]      -0.06683146 [kJ/mol]
  --------------------------------------------------------------------------------------------------------

*** Psi4 exiting successfully. Buy a developer a beer!
