                               Psi4 1.4rc3

  ==> Input File <==

--------------------------------------------------------------------------
# PSI4 file produced by CrystaLattE

# Generated from:               acetic_acid.xyz
# Psithon input for N-mer:      2mer-0+201
# Number of atoms per monomer:  [8, 8]
# Number of replicas:           2
# COM priority:                 4.419452950961e-05
# Minimum COM separations:      14.967
# Separation priority:          7.928611924847e-05
# Minimum monomer separations:  12.318
# Cutoff priority:              3.406143037496e-06
# Nuclear repulsion energy:     279.6752892092535

memory 7 GB

molecule Dimer_0_201 {
  O           -5.53102237       2.93940290       1.97762624
  O           -2.40708886       0.90817734       0.04905909
  H           -0.50304887       1.37579205       4.63880908
  H            0.00000000       4.25104285       3.09072238
  H           -2.38948215       4.01916779       5.40195041
  H           -3.74771411       0.47147930      -1.21557512
  C           -1.41859782       2.98500500       3.84405190
  C           -3.32263781       2.28628814       1.91221413
--
  O            7.19108365      28.13185578      -3.47338325
  O            4.06715015      30.16308134      -5.40195041
  H            2.16311016      29.69546663      -0.81220041
  H            1.66006128      26.82021583      -2.36028711
  H            4.04954344      27.05209089      -0.04905909
  H            5.40777540      30.59977938      -6.66658461
  C            3.07865911      28.08625368      -1.60695760
  C            4.98269910      28.78497054      -3.53879536
units = au
no_com
no_reorient
}

set {
  e_convergence 10
  d_convergence 10
  scf_type df
  mp2_type df
  cc_type df
  freeze_core true
}

energy('sapt0/aug-cc-pvdz')

--------------------------------------------------------------------------

  //              Dimer HF             //
    Molecular point group: c1
  Charge       = 0
  Multiplicity = 1
  Basis Set: AUG-CC-PVDZ
    Blend: AUG-CC-PVDZ
  Basis Set: (AUG-CC-PVDZ AUX)
    Blend: AUG-CC-PVDZ-JKFIT
  @DF-RHF Final Energy:  -455.68821131285546
    Total Energy =                       -455.6882113128554579
  //            Monomer A HF           //
    Molecular point group: c1
  Multiplicity = 1
  Basis Set: AUG-CC-PVDZ
    Blend: AUG-CC-PVDZ
  Basis Set: (AUG-CC-PVDZ AUX)
    Blend: AUG-CC-PVDZ-JKFIT
  @DF-RHF Final Energy:  -227.84408589022513
    Total Energy =                       -227.8440858902251307
  //            Monomer B HF           //
    Molecular point group: c1

    Geometry (in Bohr), charge = 0, multiplicity = 1:

       Center              X                  Y                   Z               Mass
    ------------   -----------------  -----------------  -----------------  -----------------
      Gh(O)          -5.531022370000     2.939402900000     1.977626240000    15.994914619570
      Gh(O)          -2.407088860000     0.908177340000     0.049059090000    15.994914619570
      Gh(H)          -0.503048870000     1.375792050000     4.638809080000     1.007825032230
      Gh(H)           0.000000000000     4.251042850000     3.090722380000     1.007825032230
      Gh(H)          -2.389482150000     4.019167790000     5.401950410000     1.007825032230
      Gh(H)          -3.747714110000     0.471479300000    -1.215575120000     1.007825032230
      Gh(C)          -1.418597820000     2.985005000000     3.844051900000    12.000000000000
      Gh(C)          -3.322637810000     2.286288140000     1.912214130000    12.000000000000
         O            7.191083650000    28.131855780000    -3.473383250000    15.994914619570
         O            4.067150150000    30.163081340000    -5.401950410000    15.994914619570
         H            2.163110160000    29.695466630000    -0.812200410000     1.007825032230
         H            1.660061280000    26.820215830000    -2.360287110000     1.007825032230
         H            4.049543440000    27.052090890000    -0.049059090000     1.007825032230
         H            5.407775400000    30.599779380000    -6.666584610000     1.007825032230
         C            3.078659110000    28.086253680000    -1.606957600000    12.000000000000
         C            4.982699100000    28.784970540000    -3.538795360000    12.000000000000

  Charge       = 0
  Multiplicity = 1
  Basis Set: AUG-CC-PVDZ
    Blend: AUG-CC-PVDZ
  Basis Set: (AUG-CC-PVDZ AUX)
    Blend: AUG-CC-PVDZ-JKFIT

    Orbital Energies [Eh]
    ---------------------

    Doubly Occupied:

       1A    -20.629476     2A    -20.552804     3A    -11.396108
       4A    -11.250979     5A     -1.475853     6A     -1.357486
       7A     -1.032999     8A     -0.837930     9A     -0.703065
      10A     -0.688465    11A     -0.657749    12A     -0.576538
      13A     -0.569697    14A     -0.561403    15A     -0.475343
      16A     -0.452434

  @DF-RHF Final Energy:  -227.84408589218918

   => Energetics <=

    Nuclear Repulsion Energy =            121.7484303212881542
    One-Electron Energy =                -552.7483716328300716
    Two-Electron Energy =                 203.1558554193527470
    Total Energy =                       -227.8440858921891845

  Dipole Moment: [D]
     X:    -2.1048      Y:     0.7191      Z:    -0.2116     Total:     2.2342

    SAPT Results
  --------------------------------------------------------------------------------------------------------
    Electrostatics                 -0.03941576 [mEh]      -0.02473376 [kcal/mol]      -0.10348606 [kJ/mol]
      Elst10,r                     -0.03941576 [mEh]      -0.02473376 [kcal/mol]      -0.10348606 [kJ/mol]

    Exchange                        0.00000000 [mEh]       0.00000000 [kcal/mol]       0.00000000 [kJ/mol]
      Exch10                        0.00000000 [mEh]       0.00000000 [kcal/mol]       0.00000000 [kJ/mol]
      Exch10(S^2)                   0.00000000 [mEh]       0.00000000 [kcal/mol]       0.00000000 [kJ/mol]

    Induction                      -0.00011468 [mEh]      -0.00007196 [kcal/mol]      -0.00030110 [kJ/mol]
      Ind20,r                      -0.00007237 [mEh]      -0.00004542 [kcal/mol]      -0.00019002 [kJ/mol]
      Exch-Ind20,r                  0.00000000 [mEh]       0.00000000 [kcal/mol]       0.00000001 [kJ/mol]
      delta HF,r (2)               -0.00004231 [mEh]      -0.00002655 [kcal/mol]      -0.00011108 [kJ/mol]

    Dispersion                     -0.00118894 [mEh]      -0.00074607 [kcal/mol]      -0.00312155 [kJ/mol]
      Disp20                       -0.00118894 [mEh]      -0.00074607 [kcal/mol]      -0.00312155 [kJ/mol]
      Exch-Disp20                   0.00000000 [mEh]       0.00000000 [kcal/mol]       0.00000000 [kJ/mol]
      Disp20 (SS)                  -0.00059447 [mEh]      -0.00037303 [kcal/mol]      -0.00156077 [kJ/mol]
      Disp20 (OS)                  -0.00059447 [mEh]      -0.00037303 [kcal/mol]      -0.00156077 [kJ/mol]
      Exch-Disp20 (SS)              0.00000000 [mEh]       0.00000000 [kcal/mol]       0.00000000 [kJ/mol]
      Exch-Disp20 (OS)              0.00000000 [mEh]       0.00000000 [kcal/mol]       0.00000000 [kJ/mol]

  Total HF                         -0.03953044 [mEh]      -0.02480573 [kcal/mol]      -0.10378716 [kJ/mol]
  Total SAPT0                      -0.04071938 [mEh]      -0.02555179 [kcal/mol]      -0.10690871 [kJ/mol]

  Special recipe for scaled SAPT0 (see Manual):
    Electrostatics sSAPT0          -0.03941576 [mEh]      -0.02473376 [kcal/mol]      -0.10348606 [kJ/mol]
    Exchange sSAPT0                 0.00000000 [mEh]       0.00000000 [kcal/mol]       0.00000000 [kJ/mol]
    Induction sSAPT0               -0.00011468 [mEh]      -0.00007196 [kcal/mol]      -0.00030110 [kJ/mol]
    Dispersion sSAPT0              -0.00118894 [mEh]      -0.00074607 [kcal/mol]      -0.00312155 [kJ/mol]
  Total sSAPT0                     -0.04071938 [mEh]      -0.02555179 [kcal/mol]      -0.10690871 [kJ/mol]
  --------------------------------------------------------------------------------------------------------

*** Psi4 exiting successfully. Buy a developer a beer!
