                               Psi4 1.4rc3

  ==> Input File <==

--------------------------------------------------------------------------
# PSI4 file produced by CrystaLattE

# Generated from:               acetic_acid.xyz
# Psithon input for N-mer:      2mer-0+415
# Number of atoms per monomer:  [8, 8]
# Number of replicas:           2
# COM priority:                 1.735625490758e-05
# Minimum COM separations:      20.439
# Separation priority:          2.847017389502e-05
# Minimum monomer separations:  17.330
# Cutoff priority:              8.693343223364e-07
# Nuclear repulsion energy:     270.00218380842995

memory 7 GB

molecule Dimer_0_415 {
  O           -5.53102237       2.93940290       1.97762624
  O           -2.40708886       0.90817734       0.04905909
  H           -0.50304887       1.37579205       4.63880908
  H            0.00000000       4.25104285       3.09072238
  H           -2.38948215       4.01916779       5.40195041
  H           -3.74771411       0.47147930      -1.21557512
  C           -1.41859782       2.98500500       3.84405190
  C           -3.32263781       2.28628814       1.91221413
--
  O           -5.38513820       6.80398732     -36.17944022
  O           -8.50907170       4.77276175     -38.10800738
  H          -10.41311169       5.24037646     -33.51825739
  H          -10.91616057       8.11562727     -35.06634408
  H           -8.52667842       7.88375220     -32.75511606
  H           -7.16844646       4.33606371     -39.37264158
  C           -9.49756274       6.84958941     -34.31301457
  C           -7.59352275       6.15087255     -36.24485234
units = au
no_com
no_reorient
}

set {
  e_convergence 10
  d_convergence 10
  scf_type df
  mp2_type df
  cc_type df
  freeze_core true
}

energy('sapt0/aug-cc-pvdz')

--------------------------------------------------------------------------

  //              Dimer HF             //
    Molecular point group: c1
  Charge       = 0
  Multiplicity = 1
  Basis Set: AUG-CC-PVDZ
    Blend: AUG-CC-PVDZ
  Basis Set: (AUG-CC-PVDZ AUX)
    Blend: AUG-CC-PVDZ-JKFIT
  @DF-RHF Final Energy:  -455.68818242005602
    Total Energy =                       -455.6881824200560231
  //            Monomer A HF           //
    Molecular point group: c1
  Multiplicity = 1
  Basis Set: AUG-CC-PVDZ
    Blend: AUG-CC-PVDZ
  Basis Set: (AUG-CC-PVDZ AUX)
    Blend: AUG-CC-PVDZ-JKFIT
  @DF-RHF Final Energy:  -227.84408589635126
    Total Energy =                       -227.8440858963512596
  //            Monomer B HF           //
    Molecular point group: c1

    Geometry (in Bohr), charge = 0, multiplicity = 1:

       Center              X                  Y                   Z               Mass
    ------------   -----------------  -----------------  -----------------  -----------------
      Gh(O)          -5.531022370000     2.939402900000     1.977626240000    15.994914619570
      Gh(O)          -2.407088860000     0.908177340000     0.049059090000    15.994914619570
      Gh(H)          -0.503048870000     1.375792050000     4.638809080000     1.007825032230
      Gh(H)           0.000000000000     4.251042850000     3.090722380000     1.007825032230
      Gh(H)          -2.389482150000     4.019167790000     5.401950410000     1.007825032230
      Gh(H)          -3.747714110000     0.471479300000    -1.215575120000     1.007825032230
      Gh(C)          -1.418597820000     2.985005000000     3.844051900000    12.000000000000
      Gh(C)          -3.322637810000     2.286288140000     1.912214130000    12.000000000000
         O           -5.385138200000     6.803987320000   -36.179440220000    15.994914619570
         O           -8.509071700000     4.772761750000   -38.108007380000    15.994914619570
         H          -10.413111690000     5.240376460000   -33.518257390000     1.007825032230
         H          -10.916160570000     8.115627270000   -35.066344080000     1.007825032230
         H           -8.526678420000     7.883752200000   -32.755116060000     1.007825032230
         H           -7.168446460000     4.336063710000   -39.372641580000     1.007825032230
         C           -9.497562740000     6.849589410000   -34.313014570000    12.000000000000
         C           -7.593522750000     6.150872550000   -36.244852340000    12.000000000000

  Charge       = 0
  Multiplicity = 1
  Basis Set: AUG-CC-PVDZ
    Blend: AUG-CC-PVDZ
  Basis Set: (AUG-CC-PVDZ AUX)
    Blend: AUG-CC-PVDZ-JKFIT

    Orbital Energies [Eh]
    ---------------------

    Doubly Occupied:

       1A    -20.629476     2A    -20.552804     3A    -11.396108
       4A    -11.250979     5A     -1.475853     6A     -1.357486
       7A     -1.032999     8A     -0.837930     9A     -0.703065
      10A     -0.688465    11A     -0.657749    12A     -0.576538
      13A     -0.569697    14A     -0.561403    15A     -0.475343
      16A     -0.452434

  @DF-RHF Final Energy:  -227.84408589562111

   => Energetics <=

    Nuclear Repulsion Energy =            121.7484303155958685
    One-Electron Energy =                -552.7483716335973440
    Two-Electron Energy =                 203.1558554223803412
    Total Energy =                       -227.8440858956211059

  Dipole Moment: [D]
     X:    -2.1048      Y:    -0.7191      Z:    -0.2116     Total:     2.2342

    SAPT Results
  --------------------------------------------------------------------------------------------------------
    Electrostatics                 -0.01060362 [mEh]      -0.00665387 [kcal/mol]      -0.02783981 [kJ/mol]
      Elst10,r                     -0.01060362 [mEh]      -0.00665387 [kcal/mol]      -0.02783981 [kJ/mol]

    Exchange                       -0.00000000 [mEh]      -0.00000000 [kcal/mol]      -0.00000000 [kJ/mol]
      Exch10                       -0.00000000 [mEh]      -0.00000000 [kcal/mol]      -0.00000000 [kJ/mol]
      Exch10(S^2)                  -0.00000000 [mEh]      -0.00000000 [kcal/mol]      -0.00000000 [kJ/mol]

    Induction                      -0.00002446 [mEh]      -0.00001535 [kcal/mol]      -0.00006422 [kJ/mol]
      Ind20,r                      -0.00000885 [mEh]      -0.00000556 [kcal/mol]      -0.00002325 [kJ/mol]
      Exch-Ind20,r                  0.00000000 [mEh]       0.00000000 [kcal/mol]       0.00000000 [kJ/mol]
      delta HF,r (2)               -0.00001561 [mEh]      -0.00000979 [kcal/mol]      -0.00004097 [kJ/mol]

    Dispersion                     -0.00016951 [mEh]      -0.00010637 [kcal/mol]      -0.00044506 [kJ/mol]
      Disp20                       -0.00016951 [mEh]      -0.00010637 [kcal/mol]      -0.00044506 [kJ/mol]
      Exch-Disp20                   0.00000000 [mEh]       0.00000000 [kcal/mol]       0.00000000 [kJ/mol]
      Disp20 (SS)                  -0.00008476 [mEh]      -0.00005319 [kcal/mol]      -0.00022253 [kJ/mol]
      Disp20 (OS)                  -0.00008476 [mEh]      -0.00005319 [kcal/mol]      -0.00022253 [kJ/mol]
      Exch-Disp20 (SS)              0.00000000 [mEh]       0.00000000 [kcal/mol]       0.00000000 [kJ/mol]
      Exch-Disp20 (OS)              0.00000000 [mEh]       0.00000000 [kcal/mol]       0.00000000 [kJ/mol]

  Total HF                         -0.01062808 [mEh]      -0.00666922 [kcal/mol]      -0.02790403 [kJ/mol]
  Total SAPT0                      -0.01079760 [mEh]      -0.00677559 [kcal/mol]      -0.02834909 [kJ/mol]

  Special recipe for scaled SAPT0 (see Manual):
    Electrostatics sSAPT0          -0.01060362 [mEh]      -0.00665387 [kcal/mol]      -0.02783981 [kJ/mol]
    Exchange sSAPT0                -0.00000000 [mEh]      -0.00000000 [kcal/mol]      -0.00000000 [kJ/mol]
    Induction sSAPT0               -0.00002446 [mEh]      -0.00001535 [kcal/mol]      -0.00006422 [kJ/mol]
    Dispersion sSAPT0              -0.00016951 [mEh]      -0.00010637 [kcal/mol]      -0.00044506 [kJ/mol]
  Total sSAPT0                     -0.01079760 [mEh]      -0.00677559 [kcal/mol]      -0.02834909 [kJ/mol]
  --------------------------------------------------------------------------------------------------------

*** Psi4 exiting successfully. Buy a developer a beer!
