                               Psi4 1.4rc3

  ==> Input File <==

--------------------------------------------------------------------------
# PSI4 file produced by CrystaLattE

# Generated from:               acetic_acid.xyz
# Psithon input for N-mer:      2mer-0+30
# Number of atoms per monomer:  [8, 8]
# Number of replicas:           2
# COM priority:                 1.564674268747e-04
# Minimum COM separations:      9.820
# Separation priority:          2.931251839251e-04
# Minimum monomer separations:  7.966
# Cutoff priority:              1.947171376340e-05
# Nuclear repulsion energy:     298.486736308026

memory 7 GB

molecule Dimer_0_30 {
  O           -5.53102237       2.93940290       1.97762624
  O           -2.40708886       0.90817734       0.04905909
  H           -0.50304887       1.37579205       4.63880908
  H            0.00000000       4.25104285       3.09072238
  H           -2.38948215       4.01916779       5.40195041
  H           -3.74771411       0.47147930      -1.21557512
  C           -1.41859782       2.98500500       3.84405190
  C           -3.32263781       2.28628814       1.91221413
--
  O            7.04519948      -6.64940394      -8.92439275
  O           10.16913299      -4.61817837     -10.85295990
  H           12.07317298      -5.08579309      -6.26320991
  H           12.57622185      -7.96104389      -7.81129661
  H           10.18673970      -7.72916883      -5.50006858
  H            8.82850774      -4.18148033     -12.11759411
  C           11.15762403      -6.69500604      -7.05796709
  C            9.25358404      -5.99628918      -8.98980486
units = au
no_com
no_reorient
}

set {
  e_convergence 10
  d_convergence 10
  scf_type df
  mp2_type df
  cc_type df
  freeze_core true
}

energy('sapt0/aug-cc-pvdz')

--------------------------------------------------------------------------

  //              Dimer HF             //
    Molecular point group: c1
  Charge       = 0
  Multiplicity = 1
  Basis Set: AUG-CC-PVDZ
    Blend: AUG-CC-PVDZ
  Basis Set: (AUG-CC-PVDZ AUX)
    Blend: AUG-CC-PVDZ-JKFIT
  @DF-RHF Final Energy:  -455.68824303712933
    Total Energy =                       -455.6882430371293253
  //            Monomer A HF           //
    Molecular point group: c1
  Multiplicity = 1
  Basis Set: AUG-CC-PVDZ
    Blend: AUG-CC-PVDZ
  Basis Set: (AUG-CC-PVDZ AUX)
    Blend: AUG-CC-PVDZ-JKFIT
  @DF-RHF Final Energy:  -227.84408677148153
    Total Energy =                       -227.8440867714815283
  //            Monomer B HF           //
    Molecular point group: c1

    Geometry (in Bohr), charge = 0, multiplicity = 1:

       Center              X                  Y                   Z               Mass
    ------------   -----------------  -----------------  -----------------  -----------------
      Gh(O)          -5.531022370000     2.939402900000     1.977626240000    15.994914619570
      Gh(O)          -2.407088860000     0.908177340000     0.049059090000    15.994914619570
      Gh(H)          -0.503048870000     1.375792050000     4.638809080000     1.007825032230
      Gh(H)           0.000000000000     4.251042850000     3.090722380000     1.007825032230
      Gh(H)          -2.389482150000     4.019167790000     5.401950410000     1.007825032230
      Gh(H)          -3.747714110000     0.471479300000    -1.215575120000     1.007825032230
      Gh(C)          -1.418597820000     2.985005000000     3.844051900000    12.000000000000
      Gh(C)          -3.322637810000     2.286288140000     1.912214130000    12.000000000000
         O            7.045199480000    -6.649403940000    -8.924392750000    15.994914619570
         O           10.169132990000    -4.618178370000   -10.852959900000    15.994914619570
         H           12.073172980000    -5.085793090000    -6.263209910000     1.007825032230
         H           12.576221850000    -7.961043890000    -7.811296610000     1.007825032230
         H           10.186739700000    -7.729168830000    -5.500068580000     1.007825032230
         H            8.828507740000    -4.181480330000   -12.117594110000     1.007825032230
         C           11.157624030000    -6.695006040000    -7.057967090000    12.000000000000
         C            9.253584040000    -5.996289180000    -8.989804860000    12.000000000000

  Charge       = 0
  Multiplicity = 1
  Basis Set: AUG-CC-PVDZ
    Blend: AUG-CC-PVDZ
  Basis Set: (AUG-CC-PVDZ AUX)
    Blend: AUG-CC-PVDZ-JKFIT

    Orbital Energies [Eh]
    ---------------------

    Doubly Occupied:

       1A    -20.629476     2A    -20.552805     3A    -11.396108
       4A    -11.250979     5A     -1.475852     6A     -1.357486
       7A     -1.032999     8A     -0.837930     9A     -0.703065
      10A     -0.688465    11A     -0.657749    12A     -0.576538
      13A     -0.569697    14A     -0.561403    15A     -0.475343
      16A     -0.452433

  @DF-RHF Final Energy:  -227.84408716102294

   => Energetics <=

    Nuclear Repulsion Energy =            121.7484301304222925
    One-Electron Energy =                -552.7483762592644325
    Two-Electron Energy =                 203.1558589678191709
    Total Energy =                       -227.8440871610229408

  Dipole Moment: [D]
     X:     2.1047      Y:     0.7190      Z:    -0.2115     Total:     2.2341

    SAPT Results
  --------------------------------------------------------------------------------------------------------
    Electrostatics                 -0.06773472 [mEh]      -0.04250418 [kcal/mol]      -0.17783749 [kJ/mol]
      Elst10,r                     -0.06773472 [mEh]      -0.04250418 [kcal/mol]      -0.17783749 [kJ/mol]

    Exchange                        0.00000020 [mEh]       0.00000013 [kcal/mol]       0.00000053 [kJ/mol]
      Exch10                        0.00000020 [mEh]       0.00000013 [kcal/mol]       0.00000053 [kJ/mol]
      Exch10(S^2)                   0.00000020 [mEh]       0.00000013 [kcal/mol]       0.00000053 [kJ/mol]

    Induction                      -0.00137010 [mEh]      -0.00085975 [kcal/mol]      -0.00359721 [kJ/mol]
      Ind20,r                      -0.00137449 [mEh]      -0.00086250 [kcal/mol]      -0.00360871 [kJ/mol]
      Exch-Ind20,r                  0.00000154 [mEh]       0.00000097 [kcal/mol]       0.00000405 [kJ/mol]
      delta HF,r (2)                0.00000284 [mEh]       0.00000178 [kcal/mol]       0.00000746 [kJ/mol]

    Dispersion                     -0.01484333 [mEh]      -0.00931433 [kcal/mol]      -0.03897116 [kJ/mol]
      Disp20                       -0.01484352 [mEh]      -0.00931445 [kcal/mol]      -0.03897165 [kJ/mol]
      Exch-Disp20                   0.00000019 [mEh]       0.00000012 [kcal/mol]       0.00000049 [kJ/mol]
      Disp20 (SS)                  -0.00742176 [mEh]      -0.00465722 [kcal/mol]      -0.01948582 [kJ/mol]
      Disp20 (OS)                  -0.00742176 [mEh]      -0.00465722 [kcal/mol]      -0.01948582 [kJ/mol]
      Exch-Disp20 (SS)              0.00000016 [mEh]       0.00000010 [kcal/mol]       0.00000041 [kJ/mol]
      Exch-Disp20 (OS)              0.00000003 [mEh]       0.00000002 [kcal/mol]       0.00000008 [kJ/mol]

  Total HF                         -0.06910462 [mEh]      -0.04336381 [kcal/mol]      -0.18143417 [kJ/mol]
  Total SAPT0                      -0.08394795 [mEh]      -0.05267814 [kcal/mol]      -0.22040532 [kJ/mol]

  Special recipe for scaled SAPT0 (see Manual):
    Electrostatics sSAPT0          -0.06773472 [mEh]      -0.04250418 [kcal/mol]      -0.17783749 [kJ/mol]
    Exchange sSAPT0                 0.00000020 [mEh]       0.00000013 [kcal/mol]       0.00000053 [kJ/mol]
    Induction sSAPT0               -0.00137010 [mEh]      -0.00085975 [kcal/mol]      -0.00359721 [kJ/mol]
    Dispersion sSAPT0              -0.01484333 [mEh]      -0.00931433 [kcal/mol]      -0.03897116 [kJ/mol]
  Total sSAPT0                     -0.08394795 [mEh]      -0.05267814 [kcal/mol]      -0.22040532 [kJ/mol]
  --------------------------------------------------------------------------------------------------------

*** Psi4 exiting successfully. Buy a developer a beer!
