                               Psi4 1.4rc3

  ==> Input File <==

--------------------------------------------------------------------------
# PSI4 file produced by CrystaLattE

# Generated from:               acetic_acid.xyz
# Psithon input for N-mer:      2mer-0+420
# Number of atoms per monomer:  [8, 8]
# Number of replicas:           2
# COM priority:                 2.170792707008e-05
# Minimum COM separations:      18.970
# Separation priority:          3.288935384014e-05
# Minimum monomer separations:  16.516
# Cutoff priority:              1.053756957130e-06
# Nuclear repulsion energy:     271.988321588615

memory 7 GB

molecule Dimer_0_420 {
  O           -5.53102237       2.93940290       1.97762624
  O           -2.40708886       0.90817734       0.04905909
  H           -0.50304887       1.37579205       4.63880908
  H            0.00000000       4.25104285       3.09072238
  H           -2.38948215       4.01916779       5.40195041
  H           -3.74771411       0.47147930      -1.21557512
  C           -1.41859782       2.98500500       3.84405190
  C           -3.32263781       2.28628814       1.91221413
--
  O          -30.53758190      -8.65435033     -14.37540224
  O          -33.66151541     -10.68557590     -16.30396940
  H          -35.56555540     -10.21796119     -11.71421941
  H          -36.06860427      -7.34271038     -13.26230610
  H          -33.67912212      -7.57458545     -10.95107808
  H          -32.32089016     -11.12227394     -17.56860360
  C          -34.65000644      -8.60874824     -12.50897659
  C          -32.74596646      -9.30746510     -14.44081435
units = au
no_com
no_reorient
}

set {
  e_convergence 10
  d_convergence 10
  scf_type df
  mp2_type df
  cc_type df
  freeze_core true
}

energy('sapt0/aug-cc-pvdz')

--------------------------------------------------------------------------

  //              Dimer HF             //
    Molecular point group: c1
  Charge       = 0
  Multiplicity = 1
  Basis Set: AUG-CC-PVDZ
    Blend: AUG-CC-PVDZ
  Basis Set: (AUG-CC-PVDZ AUX)
    Blend: AUG-CC-PVDZ-JKFIT
  @DF-RHF Final Energy:  -455.68816036701293
    Total Energy =                       -455.6881603670129266
  //            Monomer A HF           //
    Molecular point group: c1
  Multiplicity = 1
  Basis Set: AUG-CC-PVDZ
    Blend: AUG-CC-PVDZ
  Basis Set: (AUG-CC-PVDZ AUX)
    Blend: AUG-CC-PVDZ-JKFIT
  @DF-RHF Final Energy:  -227.84408589697878
    Total Energy =                       -227.8440858969787826
  //            Monomer B HF           //
    Molecular point group: c1

    Geometry (in Bohr), charge = 0, multiplicity = 1:

       Center              X                  Y                   Z               Mass
    ------------   -----------------  -----------------  -----------------  -----------------
      Gh(O)          -5.531022370000     2.939402900000     1.977626240000    15.994914619570
      Gh(O)          -2.407088860000     0.908177340000     0.049059090000    15.994914619570
      Gh(H)          -0.503048870000     1.375792050000     4.638809080000     1.007825032230
      Gh(H)           0.000000000000     4.251042850000     3.090722380000     1.007825032230
      Gh(H)          -2.389482150000     4.019167790000     5.401950410000     1.007825032230
      Gh(H)          -3.747714110000     0.471479300000    -1.215575120000     1.007825032230
      Gh(C)          -1.418597820000     2.985005000000     3.844051900000    12.000000000000
      Gh(C)          -3.322637810000     2.286288140000     1.912214130000    12.000000000000
         O          -30.537581900000    -8.654350330000   -14.375402240000    15.994914619570
         O          -33.661515410000   -10.685575900000   -16.303969400000    15.994914619570
         H          -35.565555400000   -10.217961190000   -11.714219410000     1.007825032230
         H          -36.068604270000    -7.342710380000   -13.262306100000     1.007825032230
         H          -33.679122120000    -7.574585450000   -10.951078080000     1.007825032230
         H          -32.320890160000   -11.122273940000   -17.568603600000     1.007825032230
         C          -34.650006440000    -8.608748240000   -12.508976590000    12.000000000000
         C          -32.745966460000    -9.307465100000   -14.440814350000    12.000000000000

  Charge       = 0
  Multiplicity = 1
  Basis Set: AUG-CC-PVDZ
    Blend: AUG-CC-PVDZ
  Basis Set: (AUG-CC-PVDZ AUX)
    Blend: AUG-CC-PVDZ-JKFIT

    Orbital Energies [Eh]
    ---------------------

    Doubly Occupied:

       1A    -20.629476     2A    -20.552804     3A    -11.396108
       4A    -11.250979     5A     -1.475853     6A     -1.357486
       7A     -1.032999     8A     -0.837930     9A     -0.703065
      10A     -0.688465    11A     -0.657749    12A     -0.576538
      13A     -0.569697    14A     -0.561403    15A     -0.475343
      16A     -0.452434

  @DF-RHF Final Energy:  -227.84408589611417

   => Energetics <=

    Nuclear Repulsion Energy =            121.7484301977018504
    One-Electron Energy =                -552.7483714138522828
    Two-Electron Energy =                 203.1558553200362667
    Total Energy =                       -227.8440858961141657

  Dipole Moment: [D]
     X:    -2.1048      Y:    -0.7191      Z:    -0.2116     Total:     2.2342

    SAPT Results
  --------------------------------------------------------------------------------------------------------
    Electrostatics                  0.01148912 [mEh]       0.00720953 [kcal/mol]       0.03016468 [kJ/mol]
      Elst10,r                      0.01148912 [mEh]       0.00720953 [kcal/mol]       0.03016468 [kJ/mol]

    Exchange                       -0.00000000 [mEh]      -0.00000000 [kcal/mol]      -0.00000000 [kJ/mol]
      Exch10                       -0.00000000 [mEh]      -0.00000000 [kcal/mol]      -0.00000000 [kJ/mol]
      Exch10(S^2)                  -0.00000000 [mEh]      -0.00000000 [kcal/mol]      -0.00000000 [kJ/mol]

    Induction                      -0.00006304 [mEh]      -0.00003956 [kcal/mol]      -0.00016552 [kJ/mol]
      Ind20,r                      -0.00005271 [mEh]      -0.00003308 [kcal/mol]      -0.00013840 [kJ/mol]
      Exch-Ind20,r                  0.00000000 [mEh]       0.00000000 [kcal/mol]       0.00000000 [kJ/mol]
      delta HF,r (2)               -0.00001033 [mEh]      -0.00000648 [kcal/mol]      -0.00002712 [kJ/mol]

    Dispersion                     -0.00027983 [mEh]      -0.00017559 [kcal/mol]      -0.00073468 [kJ/mol]
      Disp20                       -0.00027983 [mEh]      -0.00017559 [kcal/mol]      -0.00073468 [kJ/mol]
      Exch-Disp20                   0.00000000 [mEh]       0.00000000 [kcal/mol]       0.00000000 [kJ/mol]
      Disp20 (SS)                  -0.00013991 [mEh]      -0.00008780 [kcal/mol]      -0.00036734 [kJ/mol]
      Disp20 (OS)                  -0.00013991 [mEh]      -0.00008780 [kcal/mol]      -0.00036734 [kJ/mol]
      Exch-Disp20 (SS)              0.00000000 [mEh]       0.00000000 [kcal/mol]       0.00000000 [kJ/mol]
      Exch-Disp20 (OS)              0.00000000 [mEh]       0.00000000 [kcal/mol]       0.00000000 [kJ/mol]

  Total HF                          0.01142608 [mEh]       0.00716997 [kcal/mol]       0.02999917 [kJ/mol]
  Total SAPT0                       0.01114625 [mEh]       0.00699438 [kcal/mol]       0.02926449 [kJ/mol]

  Special recipe for scaled SAPT0 (see Manual):
    Electrostatics sSAPT0           0.01148912 [mEh]       0.00720953 [kcal/mol]       0.03016468 [kJ/mol]
    Exchange sSAPT0                -0.00000000 [mEh]      -0.00000000 [kcal/mol]      -0.00000000 [kJ/mol]
    Induction sSAPT0               -0.00006304 [mEh]      -0.00003956 [kcal/mol]      -0.00016552 [kJ/mol]
    Dispersion sSAPT0              -0.00027983 [mEh]      -0.00017559 [kcal/mol]      -0.00073468 [kJ/mol]
  Total sSAPT0                      0.01114625 [mEh]       0.00699438 [kcal/mol]       0.02926449 [kJ/mol]
  --------------------------------------------------------------------------------------------------------

*** Psi4 exiting successfully. Buy a developer a beer!
