                               Psi4 1.4rc3

  ==> Input File <==

--------------------------------------------------------------------------
# PSI4 file produced by CrystaLattE

# Generated from:               acetic_acid.xyz
# Psithon input for N-mer:      2mer-0+453
# Number of atoms per monomer:  [8, 8]
# Number of replicas:           2
# COM priority:                 1.851525306925e-05
# Minimum COM separations:      20.003
# Separation priority:          2.671755519186e-05
# Minimum monomer separations:  17.701
# Cutoff priority:              7.987219512130e-07
# Nuclear repulsion energy:     270.5080424215024

memory 7 GB

molecule Dimer_0_453 {
  O           -5.53102237       2.93940290       1.97762624
  O           -2.40708886       0.90817734       0.04905909
  H           -0.50304887       1.37579205       4.63880908
  H            0.00000000       4.25104285       3.09072238
  H           -2.38948215       4.01916779       5.40195041
  H           -3.74771411       0.47147930      -1.21557512
  C           -1.41859782       2.98500500       3.84405190
  C           -3.32263781       2.28628814       1.91221413
--
  O          -17.96136005     -18.24315718     -25.27742123
  O          -21.08529356     -16.21193161     -27.20598839
  H          -22.98933354     -16.67954633     -22.61623840
  H          -23.49238242     -19.55479713     -24.16432509
  H          -21.10290027     -19.32292206     -21.85309707
  H          -19.74466831     -15.77523357     -28.47062259
  C          -22.07378459     -18.28875928     -23.41099558
  C          -20.16974460     -17.59004241     -25.34283335
units = au
no_com
no_reorient
}

set {
  e_convergence 10
  d_convergence 10
  scf_type df
  mp2_type df
  cc_type df
  freeze_core true
}

energy('sapt0/aug-cc-pvdz')

--------------------------------------------------------------------------

  //              Dimer HF             //
    Molecular point group: c1
  Charge       = 0
  Multiplicity = 1
  Basis Set: AUG-CC-PVDZ
    Blend: AUG-CC-PVDZ
  Basis Set: (AUG-CC-PVDZ AUX)
    Blend: AUG-CC-PVDZ-JKFIT
  @DF-RHF Final Energy:  -455.68818909067562
    Total Energy =                       -455.6881890906756212
  //            Monomer A HF           //
    Molecular point group: c1
  Multiplicity = 1
  Basis Set: AUG-CC-PVDZ
    Blend: AUG-CC-PVDZ
  Basis Set: (AUG-CC-PVDZ AUX)
    Blend: AUG-CC-PVDZ-JKFIT
  @DF-RHF Final Energy:  -227.84408589674661
    Total Energy =                       -227.8440858967466056
  //            Monomer B HF           //
    Molecular point group: c1

    Geometry (in Bohr), charge = 0, multiplicity = 1:

       Center              X                  Y                   Z               Mass
    ------------   -----------------  -----------------  -----------------  -----------------
      Gh(O)          -5.531022370000     2.939402900000     1.977626240000    15.994914619570
      Gh(O)          -2.407088860000     0.908177340000     0.049059090000    15.994914619570
      Gh(H)          -0.503048870000     1.375792050000     4.638809080000     1.007825032230
      Gh(H)           0.000000000000     4.251042850000     3.090722380000     1.007825032230
      Gh(H)          -2.389482150000     4.019167790000     5.401950410000     1.007825032230
      Gh(H)          -3.747714110000     0.471479300000    -1.215575120000     1.007825032230
      Gh(C)          -1.418597820000     2.985005000000     3.844051900000    12.000000000000
      Gh(C)          -3.322637810000     2.286288140000     1.912214130000    12.000000000000
         O          -17.961360050000   -18.243157180000   -25.277421230000    15.994914619570
         O          -21.085293560000   -16.211931610000   -27.205988390000    15.994914619570
         H          -22.989333540000   -16.679546330000   -22.616238400000     1.007825032230
         H          -23.492382420000   -19.554797130000   -24.164325090000     1.007825032230
         H          -21.102900270000   -19.322922060000   -21.853097070000     1.007825032230
         H          -19.744668310000   -15.775233570000   -28.470622590000     1.007825032230
         C          -22.073784590000   -18.288759280000   -23.410995580000    12.000000000000
         C          -20.169744600000   -17.590042410000   -25.342833350000    12.000000000000

  Charge       = 0
  Multiplicity = 1
  Basis Set: AUG-CC-PVDZ
    Blend: AUG-CC-PVDZ
  Basis Set: (AUG-CC-PVDZ AUX)
    Blend: AUG-CC-PVDZ-JKFIT

    Orbital Energies [Eh]
    ---------------------

    Doubly Occupied:

       1A    -20.629476     2A    -20.552804     3A    -11.396108
       4A    -11.250979     5A     -1.475853     6A     -1.357486
       7A     -1.032999     8A     -0.837930     9A     -0.703065
      10A     -0.688465    11A     -0.657749    12A     -0.576538
      13A     -0.569697    14A     -0.561403    15A     -0.475343
      16A     -0.452434

  @DF-RHF Final Energy:  -227.84408589602330

   => Energetics <=

    Nuclear Repulsion Energy =            121.7484302468176054
    One-Electron Energy =                -552.7483714984915650
    Two-Electron Energy =                 203.1558553556506297
    Total Energy =                       -227.8440858960233015

  Dipole Moment: [D]
     X:    -2.1048      Y:     0.7191      Z:    -0.2116     Total:     2.2342

    SAPT Results
  --------------------------------------------------------------------------------------------------------
    Electrostatics                 -0.01727019 [mEh]      -0.01083721 [kcal/mol]      -0.04534289 [kJ/mol]
      Elst10,r                     -0.01727019 [mEh]      -0.01083721 [kcal/mol]      -0.04534289 [kJ/mol]

    Exchange                       -0.00000000 [mEh]      -0.00000000 [kcal/mol]      -0.00000000 [kJ/mol]
      Exch10                       -0.00000000 [mEh]      -0.00000000 [kcal/mol]      -0.00000000 [kJ/mol]
      Exch10(S^2)                  -0.00000000 [mEh]      -0.00000000 [kcal/mol]      -0.00000000 [kJ/mol]

    Induction                      -0.00002771 [mEh]      -0.00001739 [kcal/mol]      -0.00007276 [kJ/mol]
      Ind20,r                      -0.00001297 [mEh]      -0.00000814 [kcal/mol]      -0.00003405 [kJ/mol]
      Exch-Ind20,r                  0.00000000 [mEh]       0.00000000 [kcal/mol]       0.00000000 [kJ/mol]
      delta HF,r (2)               -0.00001474 [mEh]      -0.00000925 [kcal/mol]      -0.00003871 [kJ/mol]

    Dispersion                     -0.00018048 [mEh]      -0.00011325 [kcal/mol]      -0.00047385 [kJ/mol]
      Disp20                       -0.00018048 [mEh]      -0.00011325 [kcal/mol]      -0.00047385 [kJ/mol]
      Exch-Disp20                   0.00000000 [mEh]       0.00000000 [kcal/mol]       0.00000000 [kJ/mol]
      Disp20 (SS)                  -0.00009024 [mEh]      -0.00005663 [kcal/mol]      -0.00023692 [kJ/mol]
      Disp20 (OS)                  -0.00009024 [mEh]      -0.00005663 [kcal/mol]      -0.00023692 [kJ/mol]
      Exch-Disp20 (SS)              0.00000000 [mEh]       0.00000000 [kcal/mol]       0.00000000 [kJ/mol]
      Exch-Disp20 (OS)              0.00000000 [mEh]       0.00000000 [kcal/mol]       0.00000000 [kJ/mol]

  Total HF                         -0.01729791 [mEh]      -0.01085460 [kcal/mol]      -0.04541565 [kJ/mol]
  Total SAPT0                      -0.01747839 [mEh]      -0.01096785 [kcal/mol]      -0.04588949 [kJ/mol]

  Special recipe for scaled SAPT0 (see Manual):
    Electrostatics sSAPT0          -0.01727019 [mEh]      -0.01083721 [kcal/mol]      -0.04534289 [kJ/mol]
    Exchange sSAPT0                -0.00000000 [mEh]      -0.00000000 [kcal/mol]      -0.00000000 [kJ/mol]
    Induction sSAPT0               -0.00002771 [mEh]      -0.00001739 [kcal/mol]      -0.00007276 [kJ/mol]
    Dispersion sSAPT0              -0.00018048 [mEh]      -0.00011325 [kcal/mol]      -0.00047385 [kJ/mol]
  Total sSAPT0                     -0.01747839 [mEh]      -0.01096785 [kcal/mol]      -0.04588949 [kJ/mol]
  --------------------------------------------------------------------------------------------------------

*** Psi4 exiting successfully. Buy a developer a beer!
