                               Psi4 1.4rc3

  ==> Input File <==

--------------------------------------------------------------------------
# PSI4 file produced by CrystaLattE

# Generated from:               acetic_acid.xyz
# Psithon input for N-mer:      2mer-0+53
# Number of atoms per monomer:  [8, 8]
# Number of replicas:           2
# COM priority:                 1.671319039568e-04
# Minimum COM separations:      9.607
# Separation priority:          4.665811732539e-04
# Minimum monomer separations:  6.823
# Cutoff priority:              3.618841936674e-05
# Nuclear repulsion energy:     300.4666580570972

memory 7 GB

molecule Dimer_0_53 {
  O           -5.53102237       2.93940290       1.97762624
  O           -2.40708886       0.90817734       0.04905909
  H           -0.50304887       1.37579205       4.63880908
  H            0.00000000       4.25104285       3.09072238
  H           -2.38948215       4.01916779       5.40195041
  H           -3.74771411       0.47147930      -1.21557512
  C           -1.41859782       2.98500500       3.84405190
  C           -3.32263781       2.28628814       1.91221413
--
  O          -18.10724422       8.80893371      -8.92439275
  O          -14.98331071      10.84015928     -10.85295990
  H          -13.07927073      10.37254456      -6.26320991
  H          -12.57622185       7.49729376      -7.81129661
  H          -14.96570400       7.72916883      -5.50006858
  H          -16.32393596      11.27685732     -12.11759411
  C          -13.99481968       8.76333161      -7.05796709
  C          -15.89885966       9.46204848      -8.98980486
units = au
no_com
no_reorient
}

set {
  e_convergence 10
  d_convergence 10
  scf_type df
  mp2_type df
  cc_type df
  freeze_core true
}

energy('sapt0/aug-cc-pvdz')

--------------------------------------------------------------------------

  //              Dimer HF             //
    Molecular point group: c1
  Charge       = 0
  Multiplicity = 1
  Basis Set: AUG-CC-PVDZ
    Blend: AUG-CC-PVDZ
  Basis Set: (AUG-CC-PVDZ AUX)
    Blend: AUG-CC-PVDZ-JKFIT
  @DF-RHF Final Energy:  -455.68833162234603
    Total Energy =                       -455.6883316223460270
  //            Monomer A HF           //
    Molecular point group: c1
  Multiplicity = 1
  Basis Set: AUG-CC-PVDZ
    Blend: AUG-CC-PVDZ
  Basis Set: (AUG-CC-PVDZ AUX)
    Blend: AUG-CC-PVDZ-JKFIT
  @DF-RHF Final Energy:  -227.84409314439006
    Total Energy =                       -227.8440931443900581
  //            Monomer B HF           //
    Molecular point group: c1

    Geometry (in Bohr), charge = 0, multiplicity = 1:

       Center              X                  Y                   Z               Mass
    ------------   -----------------  -----------------  -----------------  -----------------
      Gh(O)          -5.531022370000     2.939402900000     1.977626240000    15.994914619570
      Gh(O)          -2.407088860000     0.908177340000     0.049059090000    15.994914619570
      Gh(H)          -0.503048870000     1.375792050000     4.638809080000     1.007825032230
      Gh(H)           0.000000000000     4.251042850000     3.090722380000     1.007825032230
      Gh(H)          -2.389482150000     4.019167790000     5.401950410000     1.007825032230
      Gh(H)          -3.747714110000     0.471479300000    -1.215575120000     1.007825032230
      Gh(C)          -1.418597820000     2.985005000000     3.844051900000    12.000000000000
      Gh(C)          -3.322637810000     2.286288140000     1.912214130000    12.000000000000
         O          -18.107244220000     8.808933710000    -8.924392750000    15.994914619570
         O          -14.983310710000    10.840159280000   -10.852959900000    15.994914619570
         H          -13.079270730000    10.372544560000    -6.263209910000     1.007825032230
         H          -12.576221850000     7.497293760000    -7.811296610000     1.007825032230
         H          -14.965704000000     7.729168830000    -5.500068580000     1.007825032230
         H          -16.323935960000    11.276857320000   -12.117594110000     1.007825032230
         C          -13.994819680000     8.763331610000    -7.057967090000    12.000000000000
         C          -15.898859660000     9.462048480000    -8.989804860000    12.000000000000

  Charge       = 0
  Multiplicity = 1
  Basis Set: AUG-CC-PVDZ
    Blend: AUG-CC-PVDZ
  Basis Set: (AUG-CC-PVDZ AUX)
    Blend: AUG-CC-PVDZ-JKFIT

    Orbital Energies [Eh]
    ---------------------

    Doubly Occupied:

       1A    -20.629476     2A    -20.552805     3A    -11.396110
       4A    -11.250972     5A     -1.475853     6A     -1.357487
       7A     -1.032999     8A     -0.837930     9A     -0.703066
      10A     -0.688465    11A     -0.657749    12A     -0.576538
      13A     -0.569697    14A     -0.561402    15A     -0.475344
      16A     -0.452434

  @DF-RHF Final Energy:  -227.84408903718554

   => Energetics <=

    Nuclear Repulsion Energy =            121.7484302077935894
    One-Electron Energy =                -552.7483889580364576
    Two-Electron Energy =                 203.1558697130573137
    Total Energy =                       -227.8440890371855403

  Dipole Moment: [D]
     X:     2.1047      Y:     0.7191      Z:    -0.2116     Total:     2.2342

    SAPT Results
  --------------------------------------------------------------------------------------------------------
    Electrostatics                 -0.14518790 [mEh]      -0.09110679 [kcal/mol]      -0.38119079 [kJ/mol]
      Elst10,r                     -0.14518790 [mEh]      -0.09110679 [kcal/mol]      -0.38119079 [kJ/mol]

    Exchange                        0.00001838 [mEh]       0.00001154 [kcal/mol]       0.00004827 [kJ/mol]
      Exch10                        0.00001838 [mEh]       0.00001154 [kcal/mol]       0.00004827 [kJ/mol]
      Exch10(S^2)                   0.00001838 [mEh]       0.00001154 [kcal/mol]       0.00004827 [kJ/mol]

    Induction                      -0.00427125 [mEh]      -0.00268025 [kcal/mol]      -0.01121417 [kJ/mol]
      Ind20,r                      -0.00412429 [mEh]      -0.00258803 [kcal/mol]      -0.01082833 [kJ/mol]
      Exch-Ind20,r                  0.00002756 [mEh]       0.00001729 [kcal/mol]       0.00007235 [kJ/mol]
      delta HF,r (2)               -0.00017451 [mEh]      -0.00010951 [kcal/mol]      -0.00045819 [kJ/mol]

    Dispersion                     -0.02593698 [mEh]      -0.01627570 [kcal/mol]      -0.06809754 [kJ/mol]
      Disp20                       -0.02593826 [mEh]      -0.01627650 [kcal/mol]      -0.06810088 [kJ/mol]
      Exch-Disp20                   0.00000127 [mEh]       0.00000080 [kcal/mol]       0.00000334 [kJ/mol]
      Disp20 (SS)                  -0.01296913 [mEh]      -0.00813825 [kcal/mol]      -0.03405044 [kJ/mol]
      Disp20 (OS)                  -0.01296913 [mEh]      -0.00813825 [kcal/mol]      -0.03405044 [kJ/mol]
      Exch-Disp20 (SS)              0.00000102 [mEh]       0.00000064 [kcal/mol]       0.00000267 [kJ/mol]
      Exch-Disp20 (OS)              0.00000026 [mEh]       0.00000016 [kcal/mol]       0.00000067 [kJ/mol]

  Total HF                         -0.14944077 [mEh]      -0.09377550 [kcal/mol]      -0.39235669 [kJ/mol]
  Total SAPT0                      -0.17537775 [mEh]      -0.11005120 [kcal/mol]      -0.46045423 [kJ/mol]

  Special recipe for scaled SAPT0 (see Manual):
    Electrostatics sSAPT0          -0.14518790 [mEh]      -0.09110679 [kcal/mol]      -0.38119079 [kJ/mol]
    Exchange sSAPT0                 0.00001838 [mEh]       0.00001154 [kcal/mol]       0.00004827 [kJ/mol]
    Induction sSAPT0               -0.00427125 [mEh]      -0.00268025 [kcal/mol]      -0.01121417 [kJ/mol]
    Dispersion sSAPT0              -0.02593698 [mEh]      -0.01627570 [kcal/mol]      -0.06809754 [kJ/mol]
  Total sSAPT0                     -0.17537775 [mEh]      -0.11005120 [kcal/mol]      -0.46045423 [kJ/mol]
  --------------------------------------------------------------------------------------------------------

*** Psi4 exiting successfully. Buy a developer a beer!
