                               Psi4 1.4rc3

  ==> Input File <==

--------------------------------------------------------------------------
# PSI4 file produced by CrystaLattE

# Generated from:               acetic_acid.xyz
# Psithon input for N-mer:      2mer-0+11
# Number of atoms per monomer:  [8, 8]
# Number of replicas:           2
# COM priority:                 2.695949421311e-04
# Minimum COM separations:      8.192
# Separation priority:          7.720899920438e-04
# Minimum monomer separations:  5.768
# Cutoff priority:              7.083108549419e-05
# Nuclear repulsion energy:     309.71119358907094

memory 7 GB

molecule Dimer_0_11 {
  O           -5.53102237       2.93940290       1.97762624
  O           -2.40708886       0.90817734       0.04905909
  H           -0.50304887       1.37579205       4.63880908
  H            0.00000000       4.25104285       3.09072238
  H           -2.38948215       4.01916779       5.40195041
  H           -3.74771411       0.47147930      -1.21557512
  C           -1.41859782       2.98500500       3.84405190
  C           -3.32263781       2.28628814       1.91221413
--
  O            7.19108365     -10.51398835      -3.47338325
  O            4.06715015      -8.48276279      -5.40195041
  H            2.16311016      -8.95037750      -0.81220041
  H            1.66006128     -11.82562830      -2.36028711
  H            4.04954344     -11.59375324      -0.04905909
  H            5.40777540      -8.04606475      -6.66658461
  C            3.07865911     -10.55959045      -1.60695760
  C            4.98269910      -9.86087359      -3.53879536
units = au
no_com
no_reorient
}

set {
  e_convergence 10
  d_convergence 10
  scf_type df
  mp2_type df
  cc_type df
  freeze_core true
}

energy('sapt0/aug-cc-pvdz')

--------------------------------------------------------------------------

  //              Dimer HF             //
    Molecular point group: c1
  Charge       = 0
  Multiplicity = 1
  Basis Set: AUG-CC-PVDZ
    Blend: AUG-CC-PVDZ
  Basis Set: (AUG-CC-PVDZ AUX)
    Blend: AUG-CC-PVDZ-JKFIT
  @DF-RHF Final Energy:  -455.68818604630474
    Total Energy =                       -455.6881860463047360
  //            Monomer A HF           //
    Molecular point group: c1
  Multiplicity = 1
  Basis Set: AUG-CC-PVDZ
    Blend: AUG-CC-PVDZ
  Basis Set: (AUG-CC-PVDZ AUX)
    Blend: AUG-CC-PVDZ-JKFIT
  @DF-RHF Final Energy:  -227.84410365837007
    Total Energy =                       -227.8441036583700736
  //            Monomer B HF           //
    Molecular point group: c1

    Geometry (in Bohr), charge = 0, multiplicity = 1:

       Center              X                  Y                   Z               Mass
    ------------   -----------------  -----------------  -----------------  -----------------
      Gh(O)          -5.531022370000     2.939402900000     1.977626240000    15.994914619570
      Gh(O)          -2.407088860000     0.908177340000     0.049059090000    15.994914619570
      Gh(H)          -0.503048870000     1.375792050000     4.638809080000     1.007825032230
      Gh(H)           0.000000000000     4.251042850000     3.090722380000     1.007825032230
      Gh(H)          -2.389482150000     4.019167790000     5.401950410000     1.007825032230
      Gh(H)          -3.747714110000     0.471479300000    -1.215575120000     1.007825032230
      Gh(C)          -1.418597820000     2.985005000000     3.844051900000    12.000000000000
      Gh(C)          -3.322637810000     2.286288140000     1.912214130000    12.000000000000
         O            7.191083650000   -10.513988350000    -3.473383250000    15.994914619570
         O            4.067150150000    -8.482762790000    -5.401950410000    15.994914619570
         H            2.163110160000    -8.950377500000    -0.812200410000     1.007825032230
         H            1.660061280000   -11.825628300000    -2.360287110000     1.007825032230
         H            4.049543440000   -11.593753240000    -0.049059090000     1.007825032230
         H            5.407775400000    -8.046064750000    -6.666584610000     1.007825032230
         C            3.078659110000   -10.559590450000    -1.606957600000    12.000000000000
         C            4.982699100000    -9.860873590000    -3.538795360000    12.000000000000

  Charge       = 0
  Multiplicity = 1
  Basis Set: AUG-CC-PVDZ
    Blend: AUG-CC-PVDZ
  Basis Set: (AUG-CC-PVDZ AUX)
    Blend: AUG-CC-PVDZ-JKFIT

    Orbital Energies [Eh]
    ---------------------

    Doubly Occupied:

       1A    -20.629478     2A    -20.552804     3A    -11.396107
       4A    -11.250973     5A     -1.475852     6A     -1.357486
       7A     -1.032999     8A     -0.837929     9A     -0.703065
      10A     -0.688465    11A     -0.657749    12A     -0.576537
      13A     -0.569698    14A     -0.561403    15A     -0.475345
      16A     -0.452433

  @DF-RHF Final Energy:  -227.84409509827515

   => Energetics <=

    Nuclear Repulsion Energy =            121.7484303212881827
    One-Electron Energy =                -552.7484058991137772
    Two-Electron Energy =                 203.1558804795504329
    Total Energy =                       -227.8440950982751474

  Dipole Moment: [D]
     X:    -2.1046      Y:     0.7191      Z:    -0.2118     Total:     2.2341

    SAPT Results
  --------------------------------------------------------------------------------------------------------
    Electrostatics                  0.01384380 [mEh]       0.00868711 [kcal/mol]       0.03634688 [kJ/mol]
      Elst10,r                      0.01384380 [mEh]       0.00868711 [kcal/mol]       0.03634688 [kJ/mol]

    Exchange                        0.00001925 [mEh]       0.00001208 [kcal/mol]       0.00005054 [kJ/mol]
      Exch10                        0.00001925 [mEh]       0.00001208 [kcal/mol]       0.00005054 [kJ/mol]
      Exch10(S^2)                   0.00001925 [mEh]       0.00001208 [kcal/mol]       0.00005054 [kJ/mol]

    Induction                      -0.00115271 [mEh]      -0.00072333 [kcal/mol]      -0.00302643 [kJ/mol]
      Ind20,r                      -0.00117036 [mEh]      -0.00073441 [kcal/mol]      -0.00307277 [kJ/mol]
      Exch-Ind20,r                  0.00002105 [mEh]       0.00001321 [kcal/mol]       0.00005527 [kJ/mol]
      delta HF,r (2)               -0.00000340 [mEh]      -0.00000213 [kcal/mol]      -0.00000893 [kJ/mol]

    Dispersion                     -0.05382098 [mEh]      -0.03377318 [kcal/mol]      -0.14130697 [kJ/mol]
      Disp20                       -0.05382585 [mEh]      -0.03377623 [kcal/mol]      -0.14131975 [kJ/mol]
      Exch-Disp20                   0.00000487 [mEh]       0.00000306 [kcal/mol]       0.00001279 [kJ/mol]
      Disp20 (SS)                  -0.02691293 [mEh]      -0.01688812 [kcal/mol]      -0.07065988 [kJ/mol]
      Disp20 (OS)                  -0.02691293 [mEh]      -0.01688812 [kcal/mol]      -0.07065988 [kJ/mol]
      Exch-Disp20 (SS)              0.00000400 [mEh]       0.00000251 [kcal/mol]       0.00001050 [kJ/mol]
      Exch-Disp20 (OS)              0.00000087 [mEh]       0.00000055 [kcal/mol]       0.00000229 [kJ/mol]

  Total HF                          0.01271034 [mEh]       0.00797586 [kcal/mol]       0.03337099 [kJ/mol]
  Total SAPT0                      -0.04111064 [mEh]      -0.02579732 [kcal/mol]      -0.10793597 [kJ/mol]

  Special recipe for scaled SAPT0 (see Manual):
    Electrostatics sSAPT0           0.01384380 [mEh]       0.00868711 [kcal/mol]       0.03634688 [kJ/mol]
    Exchange sSAPT0                 0.00001925 [mEh]       0.00001208 [kcal/mol]       0.00005054 [kJ/mol]
    Induction sSAPT0               -0.00115271 [mEh]      -0.00072333 [kcal/mol]      -0.00302643 [kJ/mol]
    Dispersion sSAPT0              -0.05382098 [mEh]      -0.03377318 [kcal/mol]      -0.14130697 [kJ/mol]
  Total sSAPT0                     -0.04111064 [mEh]      -0.02579732 [kcal/mol]      -0.10793597 [kJ/mol]
  --------------------------------------------------------------------------------------------------------

*** Psi4 exiting successfully. Buy a developer a beer!
