                               Psi4 1.4rc3

  ==> Input File <==

--------------------------------------------------------------------------
# PSI4 file produced by CrystaLattE

# Generated from:               acetic_acid.xyz
# Psithon input for N-mer:      2mer-0+478
# Number of atoms per monomer:  [8, 8]
# Number of replicas:           2
# COM priority:                 1.707274772867e-05
# Minimum COM separations:      20.551
# Separation priority:          2.578775126218e-05
# Minimum monomer separations:  17.911
# Cutoff priority:              7.618765912882e-07
# Nuclear repulsion energy:     269.8681904931329

memory 7 GB

molecule Dimer_0_478 {
  O           -5.53102237       2.93940290       1.97762624
  O           -2.40708886       0.90817734       0.04905909
  H           -0.50304887       1.37579205       4.63880908
  H            0.00000000       4.25104285       3.09072238
  H           -2.38948215       4.01916779       5.40195041
  H           -3.74771411       0.47147930      -1.21557512
  C           -1.41859782       2.98500500       3.84405190
  C           -3.32263781       2.28628814       1.91221413
--
  O            7.19108365      35.86102460     -14.37540224
  O            4.06715015      37.89225017     -16.30396940
  H            2.16311016      37.42463545     -11.71421941
  H            1.66006128      34.54938465     -13.26230610
  H            4.04954344      34.78125972     -10.95107808
  H            5.40777540      38.32894821     -17.56860360
  C            3.07865911      35.81542250     -12.50897659
  C            4.98269910      36.51413937     -14.44081435
units = au
no_com
no_reorient
}

set {
  e_convergence 10
  d_convergence 10
  scf_type df
  mp2_type df
  cc_type df
  freeze_core true
}

energy('sapt0/aug-cc-pvdz')

--------------------------------------------------------------------------

  //              Dimer HF             //
    Molecular point group: c1
  Charge       = 0
  Multiplicity = 1
  Basis Set: AUG-CC-PVDZ
    Blend: AUG-CC-PVDZ
  Basis Set: (AUG-CC-PVDZ AUX)
    Blend: AUG-CC-PVDZ-JKFIT
  @DF-RHF Final Energy:  -455.68818720647289
    Total Energy =                       -455.6881872064728896
  //            Monomer A HF           //
    Molecular point group: c1
  Multiplicity = 1
  Basis Set: AUG-CC-PVDZ
    Blend: AUG-CC-PVDZ
  Basis Set: (AUG-CC-PVDZ AUX)
    Blend: AUG-CC-PVDZ-JKFIT
  @DF-RHF Final Energy:  -227.84408589467617
    Total Energy =                       -227.8440858946761693
  //            Monomer B HF           //
    Molecular point group: c1

    Geometry (in Bohr), charge = 0, multiplicity = 1:

       Center              X                  Y                   Z               Mass
    ------------   -----------------  -----------------  -----------------  -----------------
      Gh(O)          -5.531022370000     2.939402900000     1.977626240000    15.994914619570
      Gh(O)          -2.407088860000     0.908177340000     0.049059090000    15.994914619570
      Gh(H)          -0.503048870000     1.375792050000     4.638809080000     1.007825032230
      Gh(H)           0.000000000000     4.251042850000     3.090722380000     1.007825032230
      Gh(H)          -2.389482150000     4.019167790000     5.401950410000     1.007825032230
      Gh(H)          -3.747714110000     0.471479300000    -1.215575120000     1.007825032230
      Gh(C)          -1.418597820000     2.985005000000     3.844051900000    12.000000000000
      Gh(C)          -3.322637810000     2.286288140000     1.912214130000    12.000000000000
         O            7.191083650000    35.861024600000   -14.375402240000    15.994914619570
         O            4.067150150000    37.892250170000   -16.303969400000    15.994914619570
         H            2.163110160000    37.424635450000   -11.714219410000     1.007825032230
         H            1.660061280000    34.549384650000   -13.262306100000     1.007825032230
         H            4.049543440000    34.781259720000   -10.951078080000     1.007825032230
         H            5.407775400000    38.328948210000   -17.568603600000     1.007825032230
         C            3.078659110000    35.815422500000   -12.508976590000    12.000000000000
         C            4.982699100000    36.514139370000   -14.440814350000    12.000000000000

  Charge       = 0
  Multiplicity = 1
  Basis Set: AUG-CC-PVDZ
    Blend: AUG-CC-PVDZ
  Basis Set: (AUG-CC-PVDZ AUX)
    Blend: AUG-CC-PVDZ-JKFIT

    Orbital Energies [Eh]
    ---------------------

    Doubly Occupied:

       1A    -20.629476     2A    -20.552804     3A    -11.396108
       4A    -11.250979     5A     -1.475853     6A     -1.357486
       7A     -1.032999     8A     -0.837930     9A     -0.703065
      10A     -0.688465    11A     -0.657749    12A     -0.576538
      13A     -0.569697    14A     -0.561403    15A     -0.475343
      16A     -0.452434

  @DF-RHF Final Energy:  -227.84408589533857

   => Energetics <=

    Nuclear Repulsion Energy =            121.7484302696609575
    One-Electron Energy =                -552.7483715494815897
    Two-Electron Energy =                 203.1558553844820665
    Total Energy =                       -227.8440858953385657

  Dipole Moment: [D]
     X:    -2.1048      Y:     0.7191      Z:    -0.2116     Total:     2.2342

    SAPT Results
  --------------------------------------------------------------------------------------------------------
    Electrostatics                 -0.01538618 [mEh]      -0.00965497 [kcal/mol]      -0.04039641 [kJ/mol]
      Elst10,r                     -0.01538618 [mEh]      -0.00965497 [kcal/mol]      -0.04039641 [kJ/mol]

    Exchange                       -0.00000000 [mEh]      -0.00000000 [kcal/mol]      -0.00000000 [kJ/mol]
      Exch10                       -0.00000000 [mEh]      -0.00000000 [kcal/mol]      -0.00000000 [kJ/mol]
      Exch10(S^2)                  -0.00000000 [mEh]      -0.00000000 [kcal/mol]      -0.00000000 [kJ/mol]

    Induction                      -0.00003028 [mEh]      -0.00001900 [kcal/mol]      -0.00007950 [kJ/mol]
      Ind20,r                      -0.00001005 [mEh]      -0.00000631 [kcal/mol]      -0.00002638 [kJ/mol]
      Exch-Ind20,r                  0.00000000 [mEh]       0.00000000 [kcal/mol]       0.00000000 [kJ/mol]
      delta HF,r (2)               -0.00002023 [mEh]      -0.00001269 [kcal/mol]      -0.00005311 [kJ/mol]

    Dispersion                     -0.00016663 [mEh]      -0.00010456 [kcal/mol]      -0.00043748 [kJ/mol]
      Disp20                       -0.00016663 [mEh]      -0.00010456 [kcal/mol]      -0.00043748 [kJ/mol]
      Exch-Disp20                   0.00000000 [mEh]       0.00000000 [kcal/mol]       0.00000000 [kJ/mol]
      Disp20 (SS)                  -0.00008331 [mEh]      -0.00005228 [kcal/mol]      -0.00021874 [kJ/mol]
      Disp20 (OS)                  -0.00008331 [mEh]      -0.00005228 [kcal/mol]      -0.00021874 [kJ/mol]
      Exch-Disp20 (SS)              0.00000000 [mEh]       0.00000000 [kcal/mol]       0.00000000 [kJ/mol]
      Exch-Disp20 (OS)              0.00000000 [mEh]       0.00000000 [kcal/mol]       0.00000000 [kJ/mol]

  Total HF                         -0.01541646 [mEh]      -0.00967397 [kcal/mol]      -0.04047591 [kJ/mol]
  Total SAPT0                      -0.01558309 [mEh]      -0.00977853 [kcal/mol]      -0.04091339 [kJ/mol]

  Special recipe for scaled SAPT0 (see Manual):
    Electrostatics sSAPT0          -0.01538618 [mEh]      -0.00965497 [kcal/mol]      -0.04039641 [kJ/mol]
    Exchange sSAPT0                -0.00000000 [mEh]      -0.00000000 [kcal/mol]      -0.00000000 [kJ/mol]
    Induction sSAPT0               -0.00003028 [mEh]      -0.00001900 [kcal/mol]      -0.00007950 [kJ/mol]
    Dispersion sSAPT0              -0.00016663 [mEh]      -0.00010456 [kcal/mol]      -0.00043748 [kJ/mol]
  Total sSAPT0                     -0.01558309 [mEh]      -0.00977853 [kcal/mol]      -0.04091339 [kJ/mol]
  --------------------------------------------------------------------------------------------------------

*** Psi4 exiting successfully. Buy a developer a beer!
