                               Psi4 1.4rc3

  ==> Input File <==

--------------------------------------------------------------------------
# PSI4 file produced by CrystaLattE

# Generated from:               acetic_acid.xyz
# Psithon input for N-mer:      2mer-0+361
# Number of atoms per monomer:  [8, 8]
# Number of replicas:           2
# COM priority:                 1.668364321783e-05
# Minimum COM separations:      20.710
# Separation priority:          2.868936889570e-05
# Minimum monomer separations:  17.286
# Cutoff priority:              8.782698882267e-07
# Nuclear repulsion energy:     269.7149169581059

memory 7 GB

molecule Dimer_0_361 {
  O           -5.53102237       2.93940290       1.97762624
  O           -2.40708886       0.90817734       0.04905909
  H           -0.50304887       1.37579205       4.63880908
  H            0.00000000       4.25104285       3.09072238
  H           -2.38948215       4.01916779       5.40195041
  H           -3.74771411       0.47147930      -1.21557512
  C           -1.41859782       2.98500500       3.84405190
  C           -3.32263781       2.28628814       1.91221413
--
  O            7.19108365       4.94434930     -36.17944022
  O            4.06715015       6.97557487     -38.10800738
  H            2.16311016       6.50796015     -33.51825739
  H            1.66006128       3.63270935     -35.06634408
  H            4.04954344       3.86458441     -32.75511606
  H            5.40777540       7.41227290     -39.37264158
  C            3.07865911       4.89874720     -34.31301457
  C            4.98269910       5.59746406     -36.24485234
units = au
no_com
no_reorient
}

set {
  e_convergence 10
  d_convergence 10
  scf_type df
  mp2_type df
  cc_type df
  freeze_core true
}

energy('sapt0/aug-cc-pvdz')

--------------------------------------------------------------------------

  //              Dimer HF             //
    Molecular point group: c1
  Charge       = 0
  Multiplicity = 1
  Basis Set: AUG-CC-PVDZ
    Blend: AUG-CC-PVDZ
  Basis Set: (AUG-CC-PVDZ AUX)
    Blend: AUG-CC-PVDZ-JKFIT
  @DF-RHF Final Energy:  -455.68817802476849
    Total Energy =                       -455.6881780247684901
  //            Monomer A HF           //
    Molecular point group: c1
  Multiplicity = 1
  Basis Set: AUG-CC-PVDZ
    Blend: AUG-CC-PVDZ
  Basis Set: (AUG-CC-PVDZ AUX)
    Blend: AUG-CC-PVDZ-JKFIT
  @DF-RHF Final Energy:  -227.84408589584334
    Total Energy =                       -227.8440858958433353
  //            Monomer B HF           //
    Molecular point group: c1

    Geometry (in Bohr), charge = 0, multiplicity = 1:

       Center              X                  Y                   Z               Mass
    ------------   -----------------  -----------------  -----------------  -----------------
      Gh(O)          -5.531022370000     2.939402900000     1.977626240000    15.994914619570
      Gh(O)          -2.407088860000     0.908177340000     0.049059090000    15.994914619570
      Gh(H)          -0.503048870000     1.375792050000     4.638809080000     1.007825032230
      Gh(H)           0.000000000000     4.251042850000     3.090722380000     1.007825032230
      Gh(H)          -2.389482150000     4.019167790000     5.401950410000     1.007825032230
      Gh(H)          -3.747714110000     0.471479300000    -1.215575120000     1.007825032230
      Gh(C)          -1.418597820000     2.985005000000     3.844051900000    12.000000000000
      Gh(C)          -3.322637810000     2.286288140000     1.912214130000    12.000000000000
         O            7.191083650000     4.944349300000   -36.179440220000    15.994914619570
         O            4.067150150000     6.975574870000   -38.108007380000    15.994914619570
         H            2.163110160000     6.507960150000   -33.518257390000     1.007825032230
         H            1.660061280000     3.632709350000   -35.066344080000     1.007825032230
         H            4.049543440000     3.864584410000   -32.755116060000     1.007825032230
         H            5.407775400000     7.412272900000   -39.372641580000     1.007825032230
         C            3.078659110000     4.898747200000   -34.313014570000    12.000000000000
         C            4.982699100000     5.597464060000   -36.244852340000    12.000000000000

  Charge       = 0
  Multiplicity = 1
  Basis Set: AUG-CC-PVDZ
    Blend: AUG-CC-PVDZ
  Basis Set: (AUG-CC-PVDZ AUX)
    Blend: AUG-CC-PVDZ-JKFIT

    Orbital Energies [Eh]
    ---------------------

    Doubly Occupied:

       1A    -20.629476     2A    -20.552804     3A    -11.396108
       4A    -11.250979     5A     -1.475853     6A     -1.357486
       7A     -1.032999     8A     -0.837930     9A     -0.703065
      10A     -0.688465    11A     -0.657749    12A     -0.576538
      13A     -0.569697    14A     -0.561403    15A     -0.475343
      16A     -0.452434

  @DF-RHF Final Energy:  -227.84408589569179

   => Energetics <=

    Nuclear Repulsion Energy =            121.7484302847058899
    One-Electron Energy =                -552.7483715755677167
    Two-Electron Energy =                 203.1558553951700503
    Total Energy =                       -227.8440858956917907

  Dipole Moment: [D]
     X:    -2.1048      Y:     0.7191      Z:    -0.2116     Total:     2.2342

    SAPT Results
  --------------------------------------------------------------------------------------------------------
    Electrostatics                 -0.00620729 [mEh]      -0.00389514 [kcal/mol]      -0.01629725 [kJ/mol]
      Elst10,r                     -0.00620729 [mEh]      -0.00389514 [kcal/mol]      -0.01629725 [kJ/mol]

    Exchange                       -0.00000000 [mEh]      -0.00000000 [kcal/mol]      -0.00000000 [kJ/mol]
      Exch10                       -0.00000000 [mEh]      -0.00000000 [kcal/mol]      -0.00000000 [kJ/mol]
      Exch10(S^2)                  -0.00000000 [mEh]      -0.00000000 [kcal/mol]      -0.00000000 [kJ/mol]

    Induction                      -0.00002594 [mEh]      -0.00001628 [kcal/mol]      -0.00006811 [kJ/mol]
      Ind20,r                      -0.00000916 [mEh]      -0.00000575 [kcal/mol]      -0.00002404 [kJ/mol]
      Exch-Ind20,r                  0.00000000 [mEh]       0.00000000 [kcal/mol]       0.00000000 [kJ/mol]
      delta HF,r (2)               -0.00001678 [mEh]      -0.00001053 [kcal/mol]      -0.00004406 [kJ/mol]

    Dispersion                     -0.00016729 [mEh]      -0.00010498 [kcal/mol]      -0.00043923 [kJ/mol]
      Disp20                       -0.00016729 [mEh]      -0.00010498 [kcal/mol]      -0.00043923 [kJ/mol]
      Exch-Disp20                   0.00000000 [mEh]       0.00000000 [kcal/mol]       0.00000000 [kJ/mol]
      Disp20 (SS)                  -0.00008365 [mEh]      -0.00005249 [kcal/mol]      -0.00021961 [kJ/mol]
      Disp20 (OS)                  -0.00008365 [mEh]      -0.00005249 [kcal/mol]      -0.00021961 [kJ/mol]
      Exch-Disp20 (SS)              0.00000000 [mEh]       0.00000000 [kcal/mol]       0.00000000 [kJ/mol]
      Exch-Disp20 (OS)              0.00000000 [mEh]       0.00000000 [kcal/mol]       0.00000000 [kJ/mol]

  Total HF                         -0.00623323 [mEh]      -0.00391141 [kcal/mol]      -0.01636535 [kJ/mol]
  Total SAPT0                      -0.00640053 [mEh]      -0.00401639 [kcal/mol]      -0.01680458 [kJ/mol]

  Special recipe for scaled SAPT0 (see Manual):
    Electrostatics sSAPT0          -0.00620729 [mEh]      -0.00389514 [kcal/mol]      -0.01629725 [kJ/mol]
    Exchange sSAPT0                -0.00000000 [mEh]      -0.00000000 [kcal/mol]      -0.00000000 [kJ/mol]
    Induction sSAPT0               -0.00002594 [mEh]      -0.00001628 [kcal/mol]      -0.00006811 [kJ/mol]
    Dispersion sSAPT0              -0.00016729 [mEh]      -0.00010498 [kcal/mol]      -0.00043923 [kJ/mol]
  Total sSAPT0                     -0.00640053 [mEh]      -0.00401639 [kcal/mol]      -0.01680458 [kJ/mol]
  --------------------------------------------------------------------------------------------------------

*** Psi4 exiting successfully. Buy a developer a beer!
