                               Psi4 1.4rc3

  ==> Input File <==

--------------------------------------------------------------------------
# PSI4 file produced by CrystaLattE

# Generated from:               pyrazole.xyz
# Psithon input for N-mer:      2mer-0+108
# Number of atoms per monomer:  [9, 9]
# Number of replicas:           1
# COM priority:                 5.227451041378e-05
# Minimum COM separations:      14.153
# Separation priority:          9.512817461452e-05
# Minimum monomer separations:  11.592
# Cutoff priority:              4.342557233758e-06
# Nuclear repulsion energy:     381.70964141276784

memory 7 GB

molecule Dimer_0_108 {
  N            6.27981210      -4.25303372       0.19313865
  N            6.06870777      -2.28125697       1.80544317
  H            3.66871156      -5.64628941      -1.96684001
  H            0.69034521      -2.37545694      -0.42864236
  H            3.35917442       0.17650601       3.09265017
  H            7.35266782      -1.99461311       2.90680702
  C            3.77952586      -1.21508453       1.76858172
  C            2.38242998      -2.55505538       0.04607681
  C            4.01771468      -4.38410490      -0.88761863
--
  N          -20.41714710      -9.49302627      11.25733365
  N          -20.29828483      -7.45511923      12.79450737
  H          -17.74398436     -11.89393623      10.53930329
  H          -14.84934780      -9.45139749      13.29444080
  H          -17.78577187      -5.73834848      15.19907711
  H          -21.76069305      -6.64514217      13.18027269
  C          -18.01544843      -7.12494356      13.82355622
  C          -16.53245600      -9.05461578      12.93363375
  C          -18.09376133     -10.43978359      11.34193580
units = au
no_com
no_reorient
}

set {
  e_convergence 10
  d_convergence 10
  scf_type df
  mp2_type df
  cc_type df
  freeze_core true
}

energy('sapt0/aug-cc-pvdz')

--------------------------------------------------------------------------

  //              Dimer HF             //
    Molecular point group: c1
  Charge       = 0
  Multiplicity = 1
  Basis Set: AUG-CC-PVDZ
    Blend: AUG-CC-PVDZ
  Basis Set: (AUG-CC-PVDZ AUX)
    Blend: AUG-CC-PVDZ-JKFIT
  @DF-RHF Final Energy:  -449.52476210971622
    Total Energy =                       -449.5247621097162209
  //            Monomer A HF           //
    Molecular point group: c1
  Multiplicity = 1
  Basis Set: AUG-CC-PVDZ
    Blend: AUG-CC-PVDZ
  Basis Set: (AUG-CC-PVDZ AUX)
    Blend: AUG-CC-PVDZ-JKFIT
  @DF-RHF Final Energy:  -224.76233956948440
    Total Energy =                       -224.7623395694843964
  //            Monomer B HF           //
    Molecular point group: c1

    Geometry (in Bohr), charge = 0, multiplicity = 1:

       Center              X                  Y                   Z               Mass
    ------------   -----------------  -----------------  -----------------  -----------------
      Gh(N)           6.279812100000    -4.253033720000     0.193138650000    14.003074004430
      Gh(N)           6.068707770000    -2.281256970000     1.805443170000    14.003074004430
      Gh(H)           3.668711560000    -5.646289410000    -1.966840010000     1.007825032230
      Gh(H)           0.690345210000    -2.375456940000    -0.428642360000     1.007825032230
      Gh(H)           3.359174420000     0.176506010000     3.092650170000     1.007825032230
      Gh(H)           7.352667820000    -1.994613110000     2.906807020000     1.007825032230
      Gh(C)           3.779525860000    -1.215084530000     1.768581720000    12.000000000000
      Gh(C)           2.382429980000    -2.555055380000     0.046076810000    12.000000000000
      Gh(C)           4.017714680000    -4.384104900000    -0.887618630000    12.000000000000
         N          -20.417147100000    -9.493026270000    11.257333650000    14.003074004430
         N          -20.298284830000    -7.455119230000    12.794507370000    14.003074004430
         H          -17.743984360000   -11.893936230000    10.539303290000     1.007825032230
         H          -14.849347800000    -9.451397490000    13.294440800000     1.007825032230
         H          -17.785771870000    -5.738348480000    15.199077110000     1.007825032230
         H          -21.760693050000    -6.645142170000    13.180272690000     1.007825032230
         C          -18.015448430000    -7.124943560000    13.823556220000    12.000000000000
         C          -16.532456000000    -9.054615780000    12.933633750000    12.000000000000
         C          -18.093761330000   -10.439783590000    11.341935800000    12.000000000000

  Charge       = 0
  Multiplicity = 1
  Basis Set: AUG-CC-PVDZ
    Blend: AUG-CC-PVDZ
  Basis Set: (AUG-CC-PVDZ AUX)
    Blend: AUG-CC-PVDZ-JKFIT

    Orbital Energies [Eh]
    ---------------------

    Doubly Occupied:

       1A    -15.636233     2A    -15.592291     3A    -11.279903
       4A    -11.237759     5A    -11.209884     6A     -1.387001
       7A     -1.121894     8A     -1.066928     9A     -0.872759
      10A     -0.837039    11A     -0.757272    12A     -0.645745
      13A     -0.620828    14A     -0.609177    15A     -0.583905
      16A     -0.461413    17A     -0.370715    18A     -0.346055

  @DF-RHF Final Energy:  -224.76243511077229

   => Energetics <=

    Nuclear Repulsion Energy =            166.6286027570578767
    One-Electron Energy =                -633.5084739975296770
    Two-Electron Energy =                 242.1174361296995130
    Total Energy =                       -224.7624351107722873

  Dipole Moment: [D]
     X:     0.7394      Y:     1.4336      Z:     1.7871     Total:     2.4074

    SAPT Results
  --------------------------------------------------------------------------------------------------------
    Electrostatics                  0.01254426 [mEh]       0.00787164 [kcal/mol]       0.03293495 [kJ/mol]
      Elst10,r                      0.01254426 [mEh]       0.00787164 [kcal/mol]       0.03293495 [kJ/mol]

    Exchange                        0.00000016 [mEh]       0.00000010 [kcal/mol]       0.00000041 [kJ/mol]
      Exch10                        0.00000016 [mEh]       0.00000010 [kcal/mol]       0.00000041 [kJ/mol]
      Exch10(S^2)                   0.00000016 [mEh]       0.00000010 [kcal/mol]       0.00000041 [kJ/mol]

    Induction                       0.00002613 [mEh]       0.00001639 [kcal/mol]       0.00006859 [kJ/mol]
      Ind20,r                      -0.00009772 [mEh]      -0.00006132 [kcal/mol]      -0.00025657 [kJ/mol]
      Exch-Ind20,r                  0.00000024 [mEh]       0.00000015 [kcal/mol]       0.00000062 [kJ/mol]
      delta HF,r (2)                0.00012361 [mEh]       0.00007757 [kcal/mol]       0.00032454 [kJ/mol]

    Dispersion                     -0.00330170 [mEh]      -0.00207185 [kcal/mol]      -0.00866860 [kJ/mol]
      Disp20                       -0.00330170 [mEh]      -0.00207185 [kcal/mol]      -0.00866862 [kJ/mol]
      Exch-Disp20                   0.00000001 [mEh]       0.00000001 [kcal/mol]       0.00000003 [kJ/mol]
      Disp20 (SS)                  -0.00165085 [mEh]      -0.00103593 [kcal/mol]      -0.00433431 [kJ/mol]
      Disp20 (OS)                  -0.00165085 [mEh]      -0.00103593 [kcal/mol]      -0.00433431 [kJ/mol]
      Exch-Disp20 (SS)              0.00000001 [mEh]       0.00000000 [kcal/mol]       0.00000002 [kJ/mol]
      Exch-Disp20 (OS)              0.00000000 [mEh]       0.00000000 [kcal/mol]       0.00000001 [kJ/mol]

  Total HF                          0.01257054 [mEh]       0.00788813 [kcal/mol]       0.03300395 [kJ/mol]
  Total SAPT0                       0.00926885 [mEh]       0.00581629 [kcal/mol]       0.02433535 [kJ/mol]

  Special recipe for scaled SAPT0 (see Manual):
    Electrostatics sSAPT0           0.01254426 [mEh]       0.00787164 [kcal/mol]       0.03293495 [kJ/mol]
    Exchange sSAPT0                 0.00000016 [mEh]       0.00000010 [kcal/mol]       0.00000041 [kJ/mol]
    Induction sSAPT0                0.00002613 [mEh]       0.00001639 [kcal/mol]       0.00006859 [kJ/mol]
    Dispersion sSAPT0              -0.00330170 [mEh]      -0.00207185 [kcal/mol]      -0.00866860 [kJ/mol]
  Total sSAPT0                      0.00926885 [mEh]       0.00581629 [kcal/mol]       0.02433535 [kJ/mol]
  --------------------------------------------------------------------------------------------------------

*** Psi4 exiting successfully. Buy a developer a beer!
