                               Psi4 1.4rc3

  ==> Input File <==

--------------------------------------------------------------------------
# PSI4 file produced by CrystaLattE

# Generated from:               pyrazole.xyz
# Psithon input for N-mer:      2mer-0+196
# Number of atoms per monomer:  [9, 9]
# Number of replicas:           1
# COM priority:                 5.868013164818e-05
# Minimum COM separations:      13.618
# Separation priority:          1.079723062724e-04
# Minimum monomer separations:  11.113
# Cutoff priority:              5.141421041441e-06
# Nuclear repulsion energy:     383.4992317446898

memory 7 GB

molecule Dimer_0_196 {
  N            6.27981210      -4.25303372       0.19313865
  N            6.06870777      -2.28125697       1.80544317
  H            3.66871156      -5.64628941      -1.96684001
  H            0.69034521      -2.37545694      -0.42864236
  H            3.35917442       0.17650601       3.09265017
  H            7.35266782      -1.99461311       2.90680702
  C            3.77952586      -1.21508453       1.76858172
  C            2.38242998      -2.55505538       0.04607681
  C            4.01771468      -4.38410490      -0.88761863
--
  N           10.53656684     -26.08126125       4.85777613
  N           10.65542910     -28.11916829       6.39494984
  H           13.20972957     -23.68035128       4.13974577
  H           16.10436613     -26.12289003       6.89488328
  H           13.16794206     -29.83593904       8.79951959
  H            9.19302089     -28.92914534       6.78071517
  C           12.93826550     -28.44934396       7.42399869
  C           14.42125794     -26.51967174       6.53407622
  C           12.85995261     -25.13450393       4.94237828
units = au
no_com
no_reorient
}

set {
  e_convergence 10
  d_convergence 10
  scf_type df
  mp2_type df
  cc_type df
  freeze_core true
}

energy('sapt0/aug-cc-pvdz')

--------------------------------------------------------------------------

  //              Dimer HF             //
    Molecular point group: c1
  Charge       = 0
  Multiplicity = 1
  Basis Set: AUG-CC-PVDZ
    Blend: AUG-CC-PVDZ
  Basis Set: (AUG-CC-PVDZ AUX)
    Blend: AUG-CC-PVDZ-JKFIT
  @DF-RHF Final Energy:  -449.52470852633235
    Total Energy =                       -449.5247085263323470
  //            Monomer A HF           //
    Molecular point group: c1
  Multiplicity = 1
  Basis Set: AUG-CC-PVDZ
    Blend: AUG-CC-PVDZ
  Basis Set: (AUG-CC-PVDZ AUX)
    Blend: AUG-CC-PVDZ-JKFIT
  @DF-RHF Final Energy:  -224.76233968129196
    Total Energy =                       -224.7623396812919623
  //            Monomer B HF           //
    Molecular point group: c1

    Geometry (in Bohr), charge = 0, multiplicity = 1:

       Center              X                  Y                   Z               Mass
    ------------   -----------------  -----------------  -----------------  -----------------
      Gh(N)           6.279812100000    -4.253033720000     0.193138650000    14.003074004430
      Gh(N)           6.068707770000    -2.281256970000     1.805443170000    14.003074004430
      Gh(H)           3.668711560000    -5.646289410000    -1.966840010000     1.007825032230
      Gh(H)           0.690345210000    -2.375456940000    -0.428642360000     1.007825032230
      Gh(H)           3.359174420000     0.176506010000     3.092650170000     1.007825032230
      Gh(H)           7.352667820000    -1.994613110000     2.906807020000     1.007825032230
      Gh(C)           3.779525860000    -1.215084530000     1.768581720000    12.000000000000
      Gh(C)           2.382429980000    -2.555055380000     0.046076810000    12.000000000000
      Gh(C)           4.017714680000    -4.384104900000    -0.887618630000    12.000000000000
         N           10.536566840000   -26.081261250000     4.857776130000    14.003074004430
         N           10.655429100000   -28.119168290000     6.394949840000    14.003074004430
         H           13.209729570000   -23.680351280000     4.139745770000     1.007825032230
         H           16.104366130000   -26.122890030000     6.894883280000     1.007825032230
         H           13.167942060000   -29.835939040000     8.799519590000     1.007825032230
         H            9.193020890000   -28.929145340000     6.780715170000     1.007825032230
         C           12.938265500000   -28.449343960000     7.423998690000    12.000000000000
         C           14.421257940000   -26.519671740000     6.534076220000    12.000000000000
         C           12.859952610000   -25.134503930000     4.942378280000    12.000000000000

  Charge       = 0
  Multiplicity = 1
  Basis Set: AUG-CC-PVDZ
    Blend: AUG-CC-PVDZ
  Basis Set: (AUG-CC-PVDZ AUX)
    Blend: AUG-CC-PVDZ-JKFIT

    Orbital Energies [Eh]
    ---------------------

    Doubly Occupied:

       1A    -15.636233     2A    -15.592291     3A    -11.279903
       4A    -11.237758     5A    -11.209884     6A     -1.387001
       7A     -1.121894     8A     -1.066928     9A     -0.872759
      10A     -0.837039    11A     -0.757272    12A     -0.645745
      13A     -0.620828    14A     -0.609177    15A     -0.583905
      16A     -0.461413    17A     -0.370715    18A     -0.346055

  @DF-RHF Final Energy:  -224.76243517225086

   => Energetics <=

    Nuclear Repulsion Energy =            166.6286028538035850
    One-Electron Energy =                -633.5084747765283737
    Two-Electron Energy =                 242.1174367504738996
    Total Energy =                       -224.7624351722508607

  Dipole Moment: [D]
     X:     0.7394      Y:    -1.4336      Z:     1.7871     Total:     2.4074

    SAPT Results
  --------------------------------------------------------------------------------------------------------
    Electrostatics                  0.06666343 [mEh]       0.04183194 [kcal/mol]       0.17502482 [kJ/mol]
      Elst10,r                      0.06666343 [mEh]       0.04183194 [kcal/mol]       0.17502482 [kJ/mol]

    Exchange                        0.00000049 [mEh]       0.00000031 [kcal/mol]       0.00000130 [kJ/mol]
      Exch10                        0.00000049 [mEh]       0.00000031 [kcal/mol]       0.00000130 [kJ/mol]
      Exch10(S^2)                   0.00000049 [mEh]       0.00000031 [kcal/mol]       0.00000130 [kJ/mol]

    Induction                      -0.00033672 [mEh]      -0.00021129 [kcal/mol]      -0.00088405 [kJ/mol]
      Ind20,r                      -0.00045407 [mEh]      -0.00028493 [kcal/mol]      -0.00119216 [kJ/mol]
      Exch-Ind20,r                  0.00000073 [mEh]       0.00000046 [kcal/mol]       0.00000192 [kJ/mol]
      delta HF,r (2)                0.00011662 [mEh]       0.00007318 [kcal/mol]       0.00030619 [kJ/mol]

    Dispersion                     -0.00416828 [mEh]      -0.00261564 [kcal/mol]      -0.01094382 [kJ/mol]
      Disp20                       -0.00416831 [mEh]      -0.00261565 [kcal/mol]      -0.01094389 [kJ/mol]
      Exch-Disp20                   0.00000002 [mEh]       0.00000002 [kcal/mol]       0.00000007 [kJ/mol]
      Disp20 (SS)                  -0.00208415 [mEh]      -0.00130783 [kcal/mol]      -0.00547194 [kJ/mol]
      Disp20 (OS)                  -0.00208415 [mEh]      -0.00130783 [kcal/mol]      -0.00547194 [kJ/mol]
      Exch-Disp20 (SS)              0.00000002 [mEh]       0.00000001 [kcal/mol]       0.00000005 [kJ/mol]
      Exch-Disp20 (OS)              0.00000001 [mEh]       0.00000000 [kcal/mol]       0.00000002 [kJ/mol]

  Total HF                          0.06632721 [mEh]       0.04162095 [kcal/mol]       0.17414207 [kJ/mol]
  Total SAPT0                       0.06215893 [mEh]       0.03900532 [kcal/mol]       0.16319824 [kJ/mol]

  Special recipe for scaled SAPT0 (see Manual):
    Electrostatics sSAPT0           0.06666343 [mEh]       0.04183194 [kcal/mol]       0.17502482 [kJ/mol]
    Exchange sSAPT0                 0.00000049 [mEh]       0.00000031 [kcal/mol]       0.00000130 [kJ/mol]
    Induction sSAPT0               -0.00033672 [mEh]      -0.00021129 [kcal/mol]      -0.00088405 [kJ/mol]
    Dispersion sSAPT0              -0.00416828 [mEh]      -0.00261564 [kcal/mol]      -0.01094382 [kJ/mol]
  Total sSAPT0                      0.06215893 [mEh]       0.03900532 [kcal/mol]       0.16319824 [kJ/mol]
  --------------------------------------------------------------------------------------------------------

*** Psi4 exiting successfully. Buy a developer a beer!
