                               Psi4 1.4rc3

  ==> Input File <==

--------------------------------------------------------------------------
# PSI4 file produced by CrystaLattE

# Generated from:               pyrazole.xyz
# Psithon input for N-mer:      2mer-0+12
# Number of atoms per monomer:  [9, 9]
# Number of replicas:           1
# COM priority:                 1.765448734310e-04
# Minimum COM separations:      9.433
# Separation priority:          7.337448839207e-04
# Minimum monomer separations:  5.867
# Cutoff priority:              6.618000284545e-05
# Nuclear repulsion energy:     406.85935977046535

memory 7 GB

molecule Dimer_0_12 {
  N            6.27981210      -4.25303372       0.19313865
  N            6.06870777      -2.28125697       1.80544317
  H            3.66871156      -5.64628941      -1.96684001
  H            0.69034521      -2.37545694      -0.42864236
  H            3.35917442       0.17650601       3.09265017
  H            7.35266782      -1.99461311       2.90680702
  C            3.77952586      -1.21508453       1.76858172
  C            2.38242998      -2.55505538       0.04607681
  C            4.01771468      -4.38410490      -0.88761863
--
  N          -12.67871861       2.40090997       7.98741574
  N          -12.55985635       4.43881700       6.45024202
  H          -10.00555588       0.00000000       8.70544609
  H           -7.11091932       2.44253874       5.95030859
  H          -10.04734339       6.15558776       4.04567228
  H          -14.02226457       5.24879406       6.06447669
  C          -10.27701995       4.76899267       5.42119317
  C           -8.79402751       2.83932046       6.31111564
  C          -10.35533284       1.45415264       7.90281359
units = au
no_com
no_reorient
}

set {
  e_convergence 10
  d_convergence 10
  scf_type df
  mp2_type df
  cc_type df
  freeze_core true
}

energy('sapt0/aug-cc-pvdz')

--------------------------------------------------------------------------

  //              Dimer HF             //
    Molecular point group: c1
  Charge       = 0
  Multiplicity = 1
  Basis Set: AUG-CC-PVDZ
    Blend: AUG-CC-PVDZ
  Basis Set: (AUG-CC-PVDZ AUX)
    Blend: AUG-CC-PVDZ-JKFIT
  @DF-RHF Final Energy:  -449.52475655930328
    Total Energy =                       -449.5247565593032277
  //            Monomer A HF           //
    Molecular point group: c1
  Multiplicity = 1
  Basis Set: AUG-CC-PVDZ
    Blend: AUG-CC-PVDZ
  Basis Set: (AUG-CC-PVDZ AUX)
    Blend: AUG-CC-PVDZ-JKFIT
  @DF-RHF Final Energy:  -224.76236731122285
    Total Energy =                       -224.7623673112228460
  //            Monomer B HF           //
    Molecular point group: c1

    Geometry (in Bohr), charge = 0, multiplicity = 1:

       Center              X                  Y                   Z               Mass
    ------------   -----------------  -----------------  -----------------  -----------------
      Gh(N)           6.279812100000    -4.253033720000     0.193138650000    14.003074004430
      Gh(N)           6.068707770000    -2.281256970000     1.805443170000    14.003074004430
      Gh(H)           3.668711560000    -5.646289410000    -1.966840010000     1.007825032230
      Gh(H)           0.690345210000    -2.375456940000    -0.428642360000     1.007825032230
      Gh(H)           3.359174420000     0.176506010000     3.092650170000     1.007825032230
      Gh(H)           7.352667820000    -1.994613110000     2.906807020000     1.007825032230
      Gh(C)           3.779525860000    -1.215084530000     1.768581720000    12.000000000000
      Gh(C)           2.382429980000    -2.555055380000     0.046076810000    12.000000000000
      Gh(C)           4.017714680000    -4.384104900000    -0.887618630000    12.000000000000
         N          -12.678718610000     2.400909970000     7.987415740000    14.003074004430
         N          -12.559856350000     4.438817000000     6.450242020000    14.003074004430
         H          -10.005555880000     0.000000000000     8.705446090000     1.007825032230
         H           -7.110919320000     2.442538740000     5.950308590000     1.007825032230
         H          -10.047343390000     6.155587760000     4.045672280000     1.007825032230
         H          -14.022264570000     5.248794060000     6.064476690000     1.007825032230
         C          -10.277019950000     4.768992670000     5.421193170000    12.000000000000
         C           -8.794027510000     2.839320460000     6.311115640000    12.000000000000
         C          -10.355332840000     1.454152640000     7.902813590000    12.000000000000

  Charge       = 0
  Multiplicity = 1
  Basis Set: AUG-CC-PVDZ
    Blend: AUG-CC-PVDZ
  Basis Set: (AUG-CC-PVDZ AUX)
    Blend: AUG-CC-PVDZ-JKFIT

    Orbital Energies [Eh]
    ---------------------

    Doubly Occupied:

       1A    -15.636240     2A    -15.592294     3A    -11.279902
       4A    -11.237757     5A    -11.209877     6A     -1.387005
       7A     -1.121896     8A     -1.066931     9A     -0.872763
      10A     -0.837041    11A     -0.757277    12A     -0.645754
      13A     -0.620831    14A     -0.609181    15A     -0.583909
      16A     -0.461416    17A     -0.370717    18A     -0.346057

  @DF-RHF Final Energy:  -224.76246784276131

   => Energetics <=

    Nuclear Repulsion Energy =            166.6286027883021177
    One-Electron Energy =                -633.5084467854528611
    Two-Electron Energy =                 242.1173761543894045
    Total Energy =                       -224.7624678427613105

  Dipole Moment: [D]
     X:     0.7401      Y:     1.4334      Z:    -1.7874     Total:     2.4077

    SAPT Results
  --------------------------------------------------------------------------------------------------------
    Electrostatics                  0.08035783 [mEh]       0.05042530 [kcal/mol]       0.21097945 [kJ/mol]
      Elst10,r                      0.08035783 [mEh]       0.05042530 [kcal/mol]       0.21097945 [kJ/mol]

    Exchange                        0.00001909 [mEh]       0.00001198 [kcal/mol]       0.00005013 [kJ/mol]
      Exch10                        0.00001909 [mEh]       0.00001198 [kcal/mol]       0.00005013 [kJ/mol]
      Exch10(S^2)                   0.00001909 [mEh]       0.00001198 [kcal/mol]       0.00005013 [kJ/mol]

    Induction                      -0.00178224 [mEh]      -0.00111837 [kcal/mol]      -0.00467927 [kJ/mol]
      Ind20,r                      -0.00238717 [mEh]      -0.00149797 [kcal/mol]      -0.00626752 [kJ/mol]
      Exch-Ind20,r                  0.00003522 [mEh]       0.00002210 [kcal/mol]       0.00009248 [kJ/mol]
      delta HF,r (2)                0.00056971 [mEh]       0.00035750 [kcal/mol]       0.00149576 [kJ/mol]

    Dispersion                     -0.05861567 [mEh]      -0.03678189 [kcal/mol]      -0.15389542 [kJ/mol]
      Disp20                       -0.05862149 [mEh]      -0.03678554 [kcal/mol]      -0.15391069 [kJ/mol]
      Exch-Disp20                   0.00000581 [mEh]       0.00000365 [kcal/mol]       0.00001527 [kJ/mol]
      Disp20 (SS)                  -0.02931074 [mEh]      -0.01839277 [kcal/mol]      -0.07695534 [kJ/mol]
      Disp20 (OS)                  -0.02931074 [mEh]      -0.01839277 [kcal/mol]      -0.07695534 [kJ/mol]
      Exch-Disp20 (SS)              0.00000464 [mEh]       0.00000291 [kcal/mol]       0.00001218 [kJ/mol]
      Exch-Disp20 (OS)              0.00000118 [mEh]       0.00000074 [kcal/mol]       0.00000309 [kJ/mol]

  Total HF                          0.07859468 [mEh]       0.04931891 [kcal/mol]       0.20635031 [kJ/mol]
  Total SAPT0                       0.01997901 [mEh]       0.01253702 [kcal/mol]       0.05245488 [kJ/mol]

  Special recipe for scaled SAPT0 (see Manual):
    Electrostatics sSAPT0           0.08035783 [mEh]       0.05042530 [kcal/mol]       0.21097945 [kJ/mol]
    Exchange sSAPT0                 0.00001909 [mEh]       0.00001198 [kcal/mol]       0.00005013 [kJ/mol]
    Induction sSAPT0               -0.00178224 [mEh]      -0.00111837 [kcal/mol]      -0.00467927 [kJ/mol]
    Dispersion sSAPT0              -0.05861567 [mEh]      -0.03678189 [kcal/mol]      -0.15389542 [kJ/mol]
  Total sSAPT0                      0.01997901 [mEh]       0.01253702 [kcal/mol]       0.05245488 [kJ/mol]
  --------------------------------------------------------------------------------------------------------

*** Psi4 exiting successfully. Buy a developer a beer!
