                               Psi4 1.4rc3

  ==> Input File <==

--------------------------------------------------------------------------
# PSI4 file produced by CrystaLattE

# Generated from:               pyrazole.xyz
# Psithon input for N-mer:      2mer-0+131
# Number of atoms per monomer:  [9, 9]
# Number of replicas:           1
# COM priority:                 4.412637446139e-05
# Minimum COM separations:      14.975
# Separation priority:          9.318734706657e-05
# Minimum monomer separations:  11.672
# Cutoff priority:              4.224830250171e-06
# Nuclear repulsion energy:     379.15481786099025

memory 7 GB

molecule Dimer_0_131 {
  N            6.27981210      -4.25303372       0.19313865
  N            6.06870777      -2.28125697       1.80544317
  H            3.66871156      -5.64628941      -1.96684001
  H            0.69034521      -2.37545694      -0.42864236
  H            3.35917442       0.17650601       3.09265017
  H            7.35266782      -1.99461311       2.90680702
  C            3.77952586      -1.21508453       1.76858172
  C            2.38242998      -2.55505538       0.04607681
  C            4.01771468      -4.38410490      -0.88761863
--
  N           -4.94029013      -9.49302627     -27.14001149
  N           -4.82142787      -7.45511923     -25.60283778
  H           -2.26712739     -11.89393623     -27.85804185
  H            0.62750917      -9.45139749     -25.10290434
  H           -2.30891491      -5.73834848     -23.19826803
  H           -6.28383608      -6.64514217     -25.21707245
  C           -2.53859146      -7.12494356     -24.57378893
  C           -1.05559903      -9.05461578     -25.46371140
  C           -2.61690436     -10.43978359     -27.05540934
units = au
no_com
no_reorient
}

set {
  e_convergence 10
  d_convergence 10
  scf_type df
  mp2_type df
  cc_type df
  freeze_core true
}

energy('sapt0/aug-cc-pvdz')

--------------------------------------------------------------------------

  //              Dimer HF             //
    Molecular point group: c1
  Charge       = 0
  Multiplicity = 1
  Basis Set: AUG-CC-PVDZ
    Blend: AUG-CC-PVDZ
  Basis Set: (AUG-CC-PVDZ AUX)
    Blend: AUG-CC-PVDZ-JKFIT
  @DF-RHF Final Energy:  -449.52478799063834
    Total Energy =                       -449.5247879906382877
  //            Monomer A HF           //
    Molecular point group: c1
  Multiplicity = 1
  Basis Set: AUG-CC-PVDZ
    Blend: AUG-CC-PVDZ
  Basis Set: (AUG-CC-PVDZ AUX)
    Blend: AUG-CC-PVDZ-JKFIT
  @DF-RHF Final Energy:  -224.76233956894495
    Total Energy =                       -224.7623395689449524
  //            Monomer B HF           //
    Molecular point group: c1

    Geometry (in Bohr), charge = 0, multiplicity = 1:

       Center              X                  Y                   Z               Mass
    ------------   -----------------  -----------------  -----------------  -----------------
      Gh(N)           6.279812100000    -4.253033720000     0.193138650000    14.003074004430
      Gh(N)           6.068707770000    -2.281256970000     1.805443170000    14.003074004430
      Gh(H)           3.668711560000    -5.646289410000    -1.966840010000     1.007825032230
      Gh(H)           0.690345210000    -2.375456940000    -0.428642360000     1.007825032230
      Gh(H)           3.359174420000     0.176506010000     3.092650170000     1.007825032230
      Gh(H)           7.352667820000    -1.994613110000     2.906807020000     1.007825032230
      Gh(C)           3.779525860000    -1.215084530000     1.768581720000    12.000000000000
      Gh(C)           2.382429980000    -2.555055380000     0.046076810000    12.000000000000
      Gh(C)           4.017714680000    -4.384104900000    -0.887618630000    12.000000000000
         N           -4.940290130000    -9.493026270000   -27.140011490000    14.003074004430
         N           -4.821427870000    -7.455119230000   -25.602837780000    14.003074004430
         H           -2.267127390000   -11.893936230000   -27.858041850000     1.007825032230
         H            0.627509170000    -9.451397490000   -25.102904340000     1.007825032230
         H           -2.308914910000    -5.738348480000   -23.198268030000     1.007825032230
         H           -6.283836080000    -6.645142170000   -25.217072450000     1.007825032230
         C           -2.538591460000    -7.124943560000   -24.573788930000    12.000000000000
         C           -1.055599030000    -9.054615780000   -25.463711400000    12.000000000000
         C           -2.616904360000   -10.439783590000   -27.055409340000    12.000000000000

  Charge       = 0
  Multiplicity = 1
  Basis Set: AUG-CC-PVDZ
    Blend: AUG-CC-PVDZ
  Basis Set: (AUG-CC-PVDZ AUX)
    Blend: AUG-CC-PVDZ-JKFIT

    Orbital Energies [Eh]
    ---------------------

    Doubly Occupied:

       1A    -15.636233     2A    -15.592291     3A    -11.279903
       4A    -11.237759     5A    -11.209884     6A     -1.387001
       7A     -1.121894     8A     -1.066928     9A     -0.872759
      10A     -0.837039    11A     -0.757272    12A     -0.645745
      13A     -0.620828    14A     -0.609177    15A     -0.583905
      16A     -0.461413    17A     -0.370715    18A     -0.346055

  @DF-RHF Final Energy:  -224.76243510585877

   => Energetics <=

    Nuclear Repulsion Energy =            166.6286027853672067
    One-Electron Energy =                -633.5084735402724618
    Two-Electron Energy =                 242.1174356490464845
    Total Energy =                       -224.7624351058587706

  Dipole Moment: [D]
     X:     0.7394      Y:     1.4336      Z:     1.7871     Total:     2.4074

    SAPT Results
  --------------------------------------------------------------------------------------------------------
    Electrostatics                 -0.01325929 [mEh]      -0.00832033 [kcal/mol]      -0.03481226 [kJ/mol]
      Elst10,r                     -0.01325929 [mEh]      -0.00832033 [kcal/mol]      -0.03481226 [kJ/mol]

    Exchange                        0.00000014 [mEh]       0.00000009 [kcal/mol]       0.00000036 [kJ/mol]
      Exch10                        0.00000014 [mEh]       0.00000009 [kcal/mol]       0.00000036 [kJ/mol]
      Exch10(S^2)                   0.00000014 [mEh]       0.00000009 [kcal/mol]       0.00000036 [kJ/mol]

    Induction                      -0.00005668 [mEh]      -0.00003557 [kcal/mol]      -0.00014882 [kJ/mol]
      Ind20,r                      -0.00016029 [mEh]      -0.00010058 [kcal/mol]      -0.00042083 [kJ/mol]
      Exch-Ind20,r                  0.00000018 [mEh]       0.00000011 [kcal/mol]       0.00000048 [kJ/mol]
      delta HF,r (2)                0.00010342 [mEh]       0.00006490 [kcal/mol]       0.00027154 [kJ/mol]

    Dispersion                     -0.00255874 [mEh]      -0.00160564 [kcal/mol]      -0.00671798 [kJ/mol]
      Disp20                       -0.00255875 [mEh]      -0.00160564 [kcal/mol]      -0.00671800 [kJ/mol]
      Exch-Disp20                   0.00000001 [mEh]       0.00000000 [kcal/mol]       0.00000002 [kJ/mol]
      Disp20 (SS)                  -0.00127938 [mEh]      -0.00080282 [kcal/mol]      -0.00335900 [kJ/mol]
      Disp20 (OS)                  -0.00127938 [mEh]      -0.00080282 [kcal/mol]      -0.00335900 [kJ/mol]
      Exch-Disp20 (SS)              0.00000001 [mEh]       0.00000000 [kcal/mol]       0.00000001 [kJ/mol]
      Exch-Disp20 (OS)              0.00000000 [mEh]       0.00000000 [kcal/mol]       0.00000000 [kJ/mol]

  Total HF                         -0.01331583 [mEh]      -0.00835581 [kcal/mol]      -0.03496072 [kJ/mol]
  Total SAPT0                      -0.01587458 [mEh]      -0.00996145 [kcal/mol]      -0.04167870 [kJ/mol]

  Special recipe for scaled SAPT0 (see Manual):
    Electrostatics sSAPT0          -0.01325929 [mEh]      -0.00832033 [kcal/mol]      -0.03481226 [kJ/mol]
    Exchange sSAPT0                 0.00000014 [mEh]       0.00000009 [kcal/mol]       0.00000036 [kJ/mol]
    Induction sSAPT0               -0.00005668 [mEh]      -0.00003557 [kcal/mol]      -0.00014882 [kJ/mol]
    Dispersion sSAPT0              -0.00255874 [mEh]      -0.00160564 [kcal/mol]      -0.00671798 [kJ/mol]
  Total sSAPT0                     -0.01587458 [mEh]      -0.00996145 [kcal/mol]      -0.04167870 [kJ/mol]
  --------------------------------------------------------------------------------------------------------

*** Psi4 exiting successfully. Buy a developer a beer!
