                               Psi4 1.4rc3

  ==> Input File <==

--------------------------------------------------------------------------
# PSI4 file produced by CrystaLattE

# Generated from:               pyrazole.xyz
# Psithon input for N-mer:      2mer-0+18
# Number of atoms per monomer:  [9, 9]
# Number of replicas:           1
# COM priority:                 1.119330458323e-03
# Minimum COM separations:      5.097
# Separation priority:          1.860104927009e-02
# Minimum monomer separations:  1.997
# Cutoff priority:              4.928520766513e-03
# Nuclear repulsion energy:     471.422324607388

memory 7 GB

molecule Dimer_0_18 {
  N            6.27981210      -4.25303372       0.19313865
  N            6.06870777      -2.28125697       1.80544317
  H            3.66871156      -5.64628941      -1.96684001
  H            0.69034521      -2.37545694      -0.42864236
  H            3.35917442       0.17650601       3.09265017
  H            7.35266782      -1.99461311       2.90680702
  C            3.77952586      -1.21508453       1.76858172
  C            2.38242998      -2.55505538       0.04607681
  C            4.01771468      -4.38410490      -0.88761863
--
  N           10.53656684      -9.49302627      -1.54178140
  N           10.65542910      -7.45511923      -0.00460768
  H           13.20972957     -11.89393623      -2.25981175
  H           16.10436613      -9.45139749       0.49532575
  H           13.16794206      -5.73834848       2.39996206
  H            9.19302089      -6.64514217       0.38115765
  C           12.93826550      -7.12494356       1.02444117
  C           14.42125794      -9.05461578       0.13451870
  C           12.85995261     -10.43978359      -1.45717925
units = au
no_com
no_reorient
}

set {
  e_convergence 10
  d_convergence 10
  scf_type df
  mp2_type df
  cc_type df
  freeze_core true
}

energy('sapt0/aug-cc-pvdz')

--------------------------------------------------------------------------

  //              Dimer HF             //
    Molecular point group: c1
  Charge       = 0
  Multiplicity = 1
  Basis Set: AUG-CC-PVDZ
    Blend: AUG-CC-PVDZ
  Basis Set: (AUG-CC-PVDZ AUX)
    Blend: AUG-CC-PVDZ-JKFIT
  @DF-RHF Final Energy:  -449.52788513634835
    Total Energy =                       -449.5278851363483454
  //            Monomer A HF           //
    Molecular point group: c1
  Multiplicity = 1
  Basis Set: AUG-CC-PVDZ
    Blend: AUG-CC-PVDZ
  Basis Set: (AUG-CC-PVDZ AUX)
    Blend: AUG-CC-PVDZ-JKFIT
  @DF-RHF Final Energy:  -224.76274300850685
    Total Energy =                       -224.7627430085068454
  //            Monomer B HF           //
    Molecular point group: c1

    Geometry (in Bohr), charge = 0, multiplicity = 1:

       Center              X                  Y                   Z               Mass
    ------------   -----------------  -----------------  -----------------  -----------------
      Gh(N)           6.279812100000    -4.253033720000     0.193138650000    14.003074004430
      Gh(N)           6.068707770000    -2.281256970000     1.805443170000    14.003074004430
      Gh(H)           3.668711560000    -5.646289410000    -1.966840010000     1.007825032230
      Gh(H)           0.690345210000    -2.375456940000    -0.428642360000     1.007825032230
      Gh(H)           3.359174420000     0.176506010000     3.092650170000     1.007825032230
      Gh(H)           7.352667820000    -1.994613110000     2.906807020000     1.007825032230
      Gh(C)           3.779525860000    -1.215084530000     1.768581720000    12.000000000000
      Gh(C)           2.382429980000    -2.555055380000     0.046076810000    12.000000000000
      Gh(C)           4.017714680000    -4.384104900000    -0.887618630000    12.000000000000
         N           10.536566840000    -9.493026270000    -1.541781400000    14.003074004430
         N           10.655429100000    -7.455119230000    -0.004607680000    14.003074004430
         H           13.209729570000   -11.893936230000    -2.259811750000     1.007825032230
         H           16.104366130000    -9.451397490000     0.495325750000     1.007825032230
         H           13.167942060000    -5.738348480000     2.399962060000     1.007825032230
         H            9.193020890000    -6.645142170000     0.381157650000     1.007825032230
         C           12.938265500000    -7.124943560000     1.024441170000    12.000000000000
         C           14.421257940000    -9.054615780000     0.134518700000    12.000000000000
         C           12.859952610000   -10.439783590000    -1.457179250000    12.000000000000

  Charge       = 0
  Multiplicity = 1
  Basis Set: AUG-CC-PVDZ
    Blend: AUG-CC-PVDZ
  Basis Set: (AUG-CC-PVDZ AUX)
    Blend: AUG-CC-PVDZ-JKFIT

    Orbital Energies [Eh]
    ---------------------

    Doubly Occupied:

       1A    -15.636118     2A    -15.592294     3A    -11.279733
       4A    -11.237707     5A    -11.209820     6A     -1.386925
       7A     -1.121844     8A     -1.066892     9A     -0.872720
      10A     -0.837011    11A     -0.757227    12A     -0.645717
      13A     -0.620796    14A     -0.609129    15A     -0.583867
      16A     -0.461356    17A     -0.370680    18A     -0.346017

  @DF-RHF Final Energy:  -224.76287455467099

   => Energetics <=

    Nuclear Repulsion Energy =            166.6286027687440878
    One-Electron Energy =                -633.5112468164307984
    Two-Electron Energy =                 242.1197694930157240
    Total Energy =                       -224.7628745546709865

  Dipole Moment: [D]
     X:     0.7358      Y:     1.4345      Z:     1.7866     Total:     2.4065

    SAPT Results
  --------------------------------------------------------------------------------------------------------
    Electrostatics                -14.87594828 [mEh]      -9.33479847 [kcal/mol]     -39.05679682 [kJ/mol]
      Elst10,r                    -14.87594828 [mEh]      -9.33479847 [kcal/mol]     -39.05679682 [kJ/mol]

    Exchange                       17.42468273 [mEh]      10.93415349 [kcal/mol]      45.74849821 [kJ/mol]
      Exch10                       17.42468273 [mEh]      10.93415349 [kcal/mol]      45.74849821 [kJ/mol]
      Exch10(S^2)                  17.22782977 [mEh]      10.81062639 [kcal/mol]      45.23166083 [kJ/mol]

    Induction                      -4.81630763 [mEh]      -3.02227867 [kcal/mol]     -12.64521394 [kJ/mol]
      Ind20,r                      -7.76408886 [mEh]      -4.87203931 [kcal/mol]     -20.38461249 [kJ/mol]
      Exch-Ind20,r                  4.88918383 [mEh]       3.06800917 [kcal/mol]      12.83655038 [kJ/mol]
      delta HF,r (2)               -1.94140260 [mEh]      -1.21824852 [kcal/mol]      -5.09715182 [kJ/mol]

    Dispersion                     -5.96200165 [mEh]      -3.74121252 [kcal/mol]     -15.65323316 [kJ/mol]
      Disp20                       -7.14357641 [mEh]      -4.48266188 [kcal/mol]     -18.75545729 [kJ/mol]
      Exch-Disp20                   1.18157477 [mEh]       0.74144936 [kcal/mol]       3.10222412 [kJ/mol]
      Disp20 (SS)                  -3.57178821 [mEh]      -2.24133094 [kcal/mol]      -9.37772864 [kJ/mol]
      Disp20 (OS)                  -3.57178821 [mEh]      -2.24133094 [kcal/mol]      -9.37772864 [kJ/mol]
      Exch-Disp20 (SS)              0.73511139 [mEh]       0.46128936 [kcal/mol]       1.93003468 [kJ/mol]
      Exch-Disp20 (OS)              0.44646338 [mEh]       0.28016000 [kcal/mol]       1.17218944 [kJ/mol]

  Total HF                         -2.26757317 [mEh]      -1.42292365 [kcal/mol]      -5.95351254 [kJ/mol]
  Total SAPT0                      -8.22957482 [mEh]      -5.16413616 [kcal/mol]     -21.60674570 [kJ/mol]

  Special recipe for scaled SAPT0 (see Manual):
    Electrostatics sSAPT0         -14.87594828 [mEh]      -9.33479847 [kcal/mol]     -39.05679682 [kJ/mol]
    Exchange sSAPT0                17.42468273 [mEh]      10.93415349 [kcal/mol]      45.74849821 [kJ/mol]
    Induction sSAPT0               -4.64678721 [mEh]      -2.91590300 [kcal/mol]     -12.20013815 [kJ/mol]
    Dispersion sSAPT0              -5.92103345 [mEh]      -3.71550458 [kcal/mol]     -15.54567118 [kJ/mol]
  Total sSAPT0                     -8.01908621 [mEh]      -5.03205256 [kcal/mol]     -21.05410793 [kJ/mol]
  --------------------------------------------------------------------------------------------------------

*** Psi4 exiting successfully. Buy a developer a beer!
