                               Psi4 1.4rc3

  ==> Input File <==

--------------------------------------------------------------------------
# PSI4 file produced by CrystaLattE

# Generated from:               pyrazole.xyz
# Psithon input for N-mer:      2mer-0+74
# Number of atoms per monomer:  [9, 9]
# Number of replicas:           1
# COM priority:                 1.757374458453e-04
# Minimum COM separations:      9.447
# Separation priority:          3.583990681917e-04
# Minimum monomer separations:  7.450
# Cutoff priority:              2.545789528667e-05
# Nuclear repulsion energy:     405.5505309361943

memory 7 GB

molecule Dimer_0_74 {
  N            6.27981210      -4.25303372       0.19313865
  N            6.06870777      -2.28125697       1.80544317
  H            3.66871156      -5.64628941      -1.96684001
  H            0.69034521      -2.37545694      -0.42864236
  H            3.35917442       0.17650601       3.09265017
  H            7.35266782      -1.99461311       2.90680702
  C            3.77952586      -1.21508453       1.76858172
  C            2.38242998      -2.55505538       0.04607681
  C            4.01771468      -4.38410490      -0.88761863
--
  N           18.27499532       2.40090997      -4.81169931
  N           18.39385758       4.43881700      -6.34887303
  H           20.94815806       0.00000000      -4.09366896
  H           23.84279462       2.44253874      -6.84880646
  H           20.90637054       6.15558776      -8.75344277
  H           16.93144937       5.24879406      -6.73463836
  C           20.67669399       4.76899267      -7.37792188
  C           22.15968642       2.83932046      -6.48799941
  C           20.59838109       1.45415264      -4.89630146
units = au
no_com
no_reorient
}

set {
  e_convergence 10
  d_convergence 10
  scf_type df
  mp2_type df
  cc_type df
  freeze_core true
}

energy('sapt0/aug-cc-pvdz')

--------------------------------------------------------------------------

  //              Dimer HF             //
    Molecular point group: c1
  Charge       = 0
  Multiplicity = 1
  Basis Set: AUG-CC-PVDZ
    Blend: AUG-CC-PVDZ
  Basis Set: (AUG-CC-PVDZ AUX)
    Blend: AUG-CC-PVDZ-JKFIT
  @DF-RHF Final Energy:  -449.52461439954004
    Total Energy =                       -449.5246143995400416
  //            Monomer A HF           //
    Molecular point group: c1
  Multiplicity = 1
  Basis Set: AUG-CC-PVDZ
    Blend: AUG-CC-PVDZ
  Basis Set: (AUG-CC-PVDZ AUX)
    Blend: AUG-CC-PVDZ-JKFIT
  @DF-RHF Final Energy:  -224.76234623277099
    Total Energy =                       -224.7623462327709944
  //            Monomer B HF           //
    Molecular point group: c1

    Geometry (in Bohr), charge = 0, multiplicity = 1:

       Center              X                  Y                   Z               Mass
    ------------   -----------------  -----------------  -----------------  -----------------
      Gh(N)           6.279812100000    -4.253033720000     0.193138650000    14.003074004430
      Gh(N)           6.068707770000    -2.281256970000     1.805443170000    14.003074004430
      Gh(H)           3.668711560000    -5.646289410000    -1.966840010000     1.007825032230
      Gh(H)           0.690345210000    -2.375456940000    -0.428642360000     1.007825032230
      Gh(H)           3.359174420000     0.176506010000     3.092650170000     1.007825032230
      Gh(H)           7.352667820000    -1.994613110000     2.906807020000     1.007825032230
      Gh(C)           3.779525860000    -1.215084530000     1.768581720000    12.000000000000
      Gh(C)           2.382429980000    -2.555055380000     0.046076810000    12.000000000000
      Gh(C)           4.017714680000    -4.384104900000    -0.887618630000    12.000000000000
         N           18.274995320000     2.400909970000    -4.811699310000    14.003074004430
         N           18.393857580000     4.438817000000    -6.348873030000    14.003074004430
         H           20.948158060000     0.000000000000    -4.093668960000     1.007825032230
         H           23.842794620000     2.442538740000    -6.848806460000     1.007825032230
         H           20.906370540000     6.155587760000    -8.753442770000     1.007825032230
         H           16.931449370000     5.248794060000    -6.734638360000     1.007825032230
         C           20.676693990000     4.768992670000    -7.377921880000    12.000000000000
         C           22.159686420000     2.839320460000    -6.487999410000    12.000000000000
         C           20.598381090000     1.454152640000    -4.896301460000    12.000000000000

  Charge       = 0
  Multiplicity = 1
  Basis Set: AUG-CC-PVDZ
    Blend: AUG-CC-PVDZ
  Basis Set: (AUG-CC-PVDZ AUX)
    Blend: AUG-CC-PVDZ-JKFIT

    Orbital Energies [Eh]
    ---------------------

    Doubly Occupied:

       1A    -15.636232     2A    -15.592291     3A    -11.279902
       4A    -11.237755     5A    -11.209883     6A     -1.387001
       7A     -1.121893     8A     -1.066927     9A     -0.872758
      10A     -0.837039    11A     -0.757271    12A     -0.645744
      13A     -0.620828    14A     -0.609176    15A     -0.583906
      16A     -0.461413    17A     -0.370714    18A     -0.346054

  @DF-RHF Final Energy:  -224.76244117969779

   => Energetics <=

    Nuclear Repulsion Energy =            166.6286027396205611
    One-Electron Energy =                -633.5085109755198118
    Two-Electron Energy =                 242.1174670562014910
    Total Energy =                       -224.7624411796977881

  Dipole Moment: [D]
     X:     0.7394      Y:     1.4336      Z:    -1.7871     Total:     2.4074

    SAPT Results
  --------------------------------------------------------------------------------------------------------
    Electrostatics                  0.17869237 [mEh]       0.11213115 [kcal/mol]       0.46915675 [kJ/mol]
      Elst10,r                      0.17869237 [mEh]       0.11213115 [kcal/mol]       0.46915675 [kJ/mol]

    Exchange                        0.00000309 [mEh]       0.00000194 [kcal/mol]       0.00000813 [kJ/mol]
      Exch10                        0.00000309 [mEh]       0.00000194 [kcal/mol]       0.00000813 [kJ/mol]
      Exch10(S^2)                   0.00000309 [mEh]       0.00000194 [kcal/mol]       0.00000813 [kJ/mol]

    Induction                      -0.00568253 [mEh]      -0.00356584 [kcal/mol]      -0.01491949 [kJ/mol]
      Ind20,r                      -0.00591322 [mEh]      -0.00371060 [kcal/mol]      -0.01552515 [kJ/mol]
      Exch-Ind20,r                  0.00000986 [mEh]       0.00000619 [kcal/mol]       0.00002588 [kJ/mol]
      delta HF,r (2)                0.00022082 [mEh]       0.00013857 [kcal/mol]       0.00057978 [kJ/mol]

    Dispersion                     -0.03948369 [mEh]      -0.02477639 [kcal/mol]      -0.10366441 [kJ/mol]
      Disp20                       -0.03948536 [mEh]      -0.02477744 [kcal/mol]      -0.10366879 [kJ/mol]
      Exch-Disp20                   0.00000167 [mEh]       0.00000105 [kcal/mol]       0.00000438 [kJ/mol]
      Disp20 (SS)                  -0.01974268 [mEh]      -0.01238872 [kcal/mol]      -0.05183439 [kJ/mol]
      Disp20 (OS)                  -0.01974268 [mEh]      -0.01238872 [kcal/mol]      -0.05183439 [kJ/mol]
      Exch-Disp20 (SS)              0.00000140 [mEh]       0.00000088 [kcal/mol]       0.00000368 [kJ/mol]
      Exch-Disp20 (OS)              0.00000027 [mEh]       0.00000017 [kcal/mol]       0.00000070 [kJ/mol]

  Total HF                          0.17301293 [mEh]       0.10856725 [kcal/mol]       0.45424538 [kJ/mol]
  Total SAPT0                       0.13352924 [mEh]       0.08379086 [kcal/mol]       0.35058097 [kJ/mol]

  Special recipe for scaled SAPT0 (see Manual):
    Electrostatics sSAPT0           0.17869237 [mEh]       0.11213115 [kcal/mol]       0.46915675 [kJ/mol]
    Exchange sSAPT0                 0.00000309 [mEh]       0.00000194 [kcal/mol]       0.00000813 [kJ/mol]
    Induction sSAPT0               -0.00568253 [mEh]      -0.00356584 [kcal/mol]      -0.01491949 [kJ/mol]
    Dispersion sSAPT0              -0.03948369 [mEh]      -0.02477639 [kcal/mol]      -0.10366441 [kJ/mol]
  Total sSAPT0                      0.13352924 [mEh]       0.08379086 [kcal/mol]       0.35058097 [kJ/mol]
  --------------------------------------------------------------------------------------------------------

*** Psi4 exiting successfully. Buy a developer a beer!
