                               Psi4 1.4rc3

  ==> Input File <==

--------------------------------------------------------------------------
# PSI4 file produced by CrystaLattE

# Generated from:               pyrazole.xyz
# Psithon input for N-mer:      2mer-0+425
# Number of atoms per monomer:  [9, 9]
# Number of replicas:           1
# COM priority:                 2.485010015605e-05
# Minimum COM separations:      18.134
# Separation priority:          4.022778866578e-05
# Minimum monomer separations:  15.444
# Cutoff priority:              1.378377620466e-06
# Nuclear repulsion energy:     371.02997169065384

memory 7 GB

molecule Dimer_0_425 {
  N            6.27981210      -4.25303372       0.19313865
  N            6.06870777      -2.28125697       1.80544317
  H            3.66871156      -5.64628941      -1.96684001
  H            0.69034521      -2.37545694      -0.42864236
  H            3.35917442       0.17650601       3.09265017
  H            7.35266782      -1.99461311       2.90680702
  C            3.77952586      -1.21508453       1.76858172
  C            2.38242998      -2.55505538       0.04607681
  C            4.01771468      -4.38410490      -0.88761863
--
  N           26.01342381      -9.49302627      24.05644870
  N           26.13228607      -7.45511923      25.59362241
  H           28.68658654     -11.89393623      23.33841834
  H           31.58122310      -9.45139749      26.09355585
  H           28.64479903      -5.73834848      27.99819216
  H           24.66987785      -6.64514217      25.97938774
  C           28.41512247      -7.12494356      26.62267126
  C           29.89811491      -9.05461578      25.73274879
  C           28.33680957     -10.43978359      24.14105085
units = au
no_com
no_reorient
}

set {
  e_convergence 10
  d_convergence 10
  scf_type df
  mp2_type df
  cc_type df
  freeze_core true
}

energy('sapt0/aug-cc-pvdz')

--------------------------------------------------------------------------

  //              Dimer HF             //
    Molecular point group: c1
  Charge       = 0
  Multiplicity = 1
  Basis Set: AUG-CC-PVDZ
    Blend: AUG-CC-PVDZ
  Basis Set: (AUG-CC-PVDZ AUX)
    Blend: AUG-CC-PVDZ-JKFIT
  @DF-RHF Final Energy:  -449.52475553517831
    Total Energy =                       -449.5247555351783149
  //            Monomer A HF           //
    Molecular point group: c1
  Multiplicity = 1
  Basis Set: AUG-CC-PVDZ
    Blend: AUG-CC-PVDZ
  Basis Set: (AUG-CC-PVDZ AUX)
    Blend: AUG-CC-PVDZ-JKFIT
  @DF-RHF Final Energy:  -224.76233952212482
    Total Energy =                       -224.7623395221248188
  //            Monomer B HF           //
    Molecular point group: c1

    Geometry (in Bohr), charge = 0, multiplicity = 1:

       Center              X                  Y                   Z               Mass
    ------------   -----------------  -----------------  -----------------  -----------------
      Gh(N)           6.279812100000    -4.253033720000     0.193138650000    14.003074004430
      Gh(N)           6.068707770000    -2.281256970000     1.805443170000    14.003074004430
      Gh(H)           3.668711560000    -5.646289410000    -1.966840010000     1.007825032230
      Gh(H)           0.690345210000    -2.375456940000    -0.428642360000     1.007825032230
      Gh(H)           3.359174420000     0.176506010000     3.092650170000     1.007825032230
      Gh(H)           7.352667820000    -1.994613110000     2.906807020000     1.007825032230
      Gh(C)           3.779525860000    -1.215084530000     1.768581720000    12.000000000000
      Gh(C)           2.382429980000    -2.555055380000     0.046076810000    12.000000000000
      Gh(C)           4.017714680000    -4.384104900000    -0.887618630000    12.000000000000
         N           26.013423810000    -9.493026270000    24.056448700000    14.003074004430
         N           26.132286070000    -7.455119230000    25.593622410000    14.003074004430
         H           28.686586540000   -11.893936230000    23.338418340000     1.007825032230
         H           31.581223100000    -9.451397490000    26.093555850000     1.007825032230
         H           28.644799030000    -5.738348480000    27.998192160000     1.007825032230
         H           24.669877850000    -6.645142170000    25.979387740000     1.007825032230
         C           28.415122470000    -7.124943560000    26.622671260000    12.000000000000
         C           29.898114910000    -9.054615780000    25.732748790000    12.000000000000
         C           28.336809570000   -10.439783590000    24.141050850000    12.000000000000

  Charge       = 0
  Multiplicity = 1
  Basis Set: AUG-CC-PVDZ
    Blend: AUG-CC-PVDZ
  Basis Set: (AUG-CC-PVDZ AUX)
    Blend: AUG-CC-PVDZ-JKFIT

    Orbital Energies [Eh]
    ---------------------

    Doubly Occupied:

       1A    -15.636233     2A    -15.592291     3A    -11.279903
       4A    -11.237759     5A    -11.209884     6A     -1.387001
       7A     -1.121894     8A     -1.066928     9A     -0.872759
      10A     -0.837039    11A     -0.757272    12A     -0.645745
      13A     -0.620828    14A     -0.609177    15A     -0.583905
      16A     -0.461413    17A     -0.370715    18A     -0.346055

  @DF-RHF Final Energy:  -224.76243506419812

   => Energetics <=

    Nuclear Repulsion Energy =            166.6286028725329800
    One-Electron Energy =                -633.5084735343219791
    Two-Electron Energy =                 242.1174355975909123
    Total Energy =                       -224.7624350641981152

  Dipole Moment: [D]
     X:     0.7394      Y:     1.4336      Z:     1.7871     Total:     2.4074

    SAPT Results
  --------------------------------------------------------------------------------------------------------
    Electrostatics                  0.01907270 [mEh]       0.01196830 [kcal/mol]       0.05007537 [kJ/mol]
      Elst10,r                      0.01907270 [mEh]       0.01196830 [kcal/mol]       0.05007537 [kJ/mol]

    Exchange                        0.00000000 [mEh]       0.00000000 [kcal/mol]       0.00000000 [kJ/mol]
      Exch10                        0.00000000 [mEh]       0.00000000 [kcal/mol]       0.00000000 [kJ/mol]
      Exch10(S^2)                   0.00000000 [mEh]       0.00000000 [kcal/mol]       0.00000000 [kJ/mol]

    Induction                      -0.00002156 [mEh]      -0.00001353 [kcal/mol]      -0.00005660 [kJ/mol]
      Ind20,r                      -0.00006672 [mEh]      -0.00004187 [kcal/mol]      -0.00017517 [kJ/mol]
      Exch-Ind20,r                  0.00000000 [mEh]       0.00000000 [kcal/mol]       0.00000000 [kJ/mol]
      delta HF,r (2)                0.00004516 [mEh]       0.00002834 [kcal/mol]       0.00011857 [kJ/mol]

    Dispersion                     -0.00072097 [mEh]      -0.00045242 [kcal/mol]      -0.00189291 [kJ/mol]
      Disp20                       -0.00072097 [mEh]      -0.00045242 [kcal/mol]      -0.00189291 [kJ/mol]
      Exch-Disp20                   0.00000000 [mEh]       0.00000000 [kcal/mol]       0.00000000 [kJ/mol]
      Disp20 (SS)                  -0.00036049 [mEh]      -0.00022621 [kcal/mol]      -0.00094646 [kJ/mol]
      Disp20 (OS)                  -0.00036049 [mEh]      -0.00022621 [kcal/mol]      -0.00094646 [kJ/mol]
      Exch-Disp20 (SS)              0.00000000 [mEh]       0.00000000 [kcal/mol]       0.00000000 [kJ/mol]
      Exch-Disp20 (OS)              0.00000000 [mEh]       0.00000000 [kcal/mol]       0.00000000 [kJ/mol]

  Total HF                          0.01905114 [mEh]       0.01195477 [kcal/mol]       0.05001877 [kJ/mol]
  Total SAPT0                       0.01833017 [mEh]       0.01150236 [kcal/mol]       0.04812586 [kJ/mol]

  Special recipe for scaled SAPT0 (see Manual):
    Electrostatics sSAPT0           0.01907270 [mEh]       0.01196830 [kcal/mol]       0.05007537 [kJ/mol]
    Exchange sSAPT0                 0.00000000 [mEh]       0.00000000 [kcal/mol]       0.00000000 [kJ/mol]
    Induction sSAPT0               -0.00002156 [mEh]      -0.00001353 [kcal/mol]      -0.00005660 [kJ/mol]
    Dispersion sSAPT0              -0.00072097 [mEh]      -0.00045242 [kcal/mol]      -0.00189291 [kJ/mol]
  Total sSAPT0                      0.01833017 [mEh]       0.01150236 [kcal/mol]       0.04812586 [kJ/mol]
  --------------------------------------------------------------------------------------------------------

*** Psi4 exiting successfully. Buy a developer a beer!
