                               Psi4 1.4rc3

  ==> Input File <==

--------------------------------------------------------------------------
# PSI4 file produced by CrystaLattE

# Generated from:               pyrazole.xyz
# Psithon input for N-mer:      2mer-0+251
# Number of atoms per monomer:  [9, 9]
# Number of replicas:           2
# COM priority:                 2.752472728124e-05
# Minimum COM separations:      17.526
# Separation priority:          4.130948898876e-05
# Minimum monomer separations:  15.308
# Cutoff priority:              1.428016076981e-06
# Nuclear repulsion energy:     372.3426901434752

memory 7 GB

molecule Dimer_0_251 {
  N            6.27981210      -4.25303372       0.19313865
  N            6.06870777      -2.28125697       1.80544317
  H            3.66871156      -5.64628941      -1.96684001
  H            0.69034521      -2.37545694      -0.42864236
  H            3.35917442       0.17650601       3.09265017
  H            7.35266782      -1.99461311       2.90680702
  C            3.77952586      -1.21508453       1.76858172
  C            2.38242998      -2.55505538       0.04607681
  C            4.01771468      -4.38410490      -0.88761863
--
  N          -16.93547335     -16.14696995     -19.34573440
  N          -17.14657768     -14.17519320     -20.95803893
  H          -19.54657389     -17.54022564     -17.18575575
  H          -22.52494025     -14.26939318     -18.72395339
  H          -19.85611103     -11.71743022     -22.24524593
  H          -15.86261763     -13.88854934     -22.05940278
  C          -19.43575960     -13.10902076     -20.92117747
  C          -20.83285547     -14.44899162     -19.19867257
  C          -19.19757077     -16.27804113     -18.26497713
units = au
no_com
no_reorient
}

set {
  e_convergence 10
  d_convergence 10
  scf_type df
  mp2_type df
  cc_type df
  freeze_core true
}

energy('sapt0/aug-cc-pvdz')

--------------------------------------------------------------------------

  //              Dimer HF             //
    Molecular point group: c1
  Charge       = 0
  Multiplicity = 1
  Basis Set: AUG-CC-PVDZ
    Blend: AUG-CC-PVDZ
  Basis Set: (AUG-CC-PVDZ AUX)
    Blend: AUG-CC-PVDZ-JKFIT
  @DF-RHF Final Energy:  -449.52467332252058
    Total Energy =                       -449.5246733225205844
  //            Monomer A HF           //
    Molecular point group: c1
  Multiplicity = 1
  Basis Set: AUG-CC-PVDZ
    Blend: AUG-CC-PVDZ
  Basis Set: (AUG-CC-PVDZ AUX)
    Blend: AUG-CC-PVDZ-JKFIT
  @DF-RHF Final Energy:  -224.76233952103621
    Total Energy =                       -224.7623395210362105
  //            Monomer B HF           //
    Molecular point group: c1

    Geometry (in Bohr), charge = 0, multiplicity = 1:

       Center              X                  Y                   Z               Mass
    ------------   -----------------  -----------------  -----------------  -----------------
      Gh(N)           6.279812100000    -4.253033720000     0.193138650000    14.003074004430
      Gh(N)           6.068707770000    -2.281256970000     1.805443170000    14.003074004430
      Gh(H)           3.668711560000    -5.646289410000    -1.966840010000     1.007825032230
      Gh(H)           0.690345210000    -2.375456940000    -0.428642360000     1.007825032230
      Gh(H)           3.359174420000     0.176506010000     3.092650170000     1.007825032230
      Gh(H)           7.352667820000    -1.994613110000     2.906807020000     1.007825032230
      Gh(C)           3.779525860000    -1.215084530000     1.768581720000    12.000000000000
      Gh(C)           2.382429980000    -2.555055380000     0.046076810000    12.000000000000
      Gh(C)           4.017714680000    -4.384104900000    -0.887618630000    12.000000000000
         N          -16.935473350000   -16.146969950000   -19.345734400000    14.003074004430
         N          -17.146577680000   -14.175193200000   -20.958038930000    14.003074004430
         H          -19.546573890000   -17.540225640000   -17.185755750000     1.007825032230
         H          -22.524940250000   -14.269393180000   -18.723953390000     1.007825032230
         H          -19.856111030000   -11.717430220000   -22.245245930000     1.007825032230
         H          -15.862617630000   -13.888549340000   -22.059402780000     1.007825032230
         C          -19.435759600000   -13.109020760000   -20.921177470000    12.000000000000
         C          -20.832855470000   -14.448991620000   -19.198672570000    12.000000000000
         C          -19.197570770000   -16.278041130000   -18.264977130000    12.000000000000

  Charge       = 0
  Multiplicity = 1
  Basis Set: AUG-CC-PVDZ
    Blend: AUG-CC-PVDZ
  Basis Set: (AUG-CC-PVDZ AUX)
    Blend: AUG-CC-PVDZ-JKFIT

    Orbital Energies [Eh]
    ---------------------

    Doubly Occupied:

       1A    -15.636223     2A    -15.592313     3A    -11.279894
       4A    -11.237784     5A    -11.209891     6A     -1.386922
       7A     -1.121901     8A     -1.066898     9A     -0.872768
      10A     -0.837061    11A     -0.757292    12A     -0.645746
      13A     -0.620834    14A     -0.609140    15A     -0.583920
      16A     -0.461404    17A     -0.370721    18A     -0.346048

  @DF-RHF Final Energy:  -224.76233952535551

   => Energetics <=

    Nuclear Repulsion Energy =            166.6240564089822556
    One-Electron Energy =                -633.4992733287583633
    Two-Electron Energy =                 242.1128773944205932
    Total Energy =                       -224.7623395253555145

  Dipole Moment: [D]
     X:    -1.0235      Y:     1.6055      Z:    -1.4733     Total:     2.4075

    SAPT Results
  --------------------------------------------------------------------------------------------------------
    Electrostatics                  0.00568309 [mEh]       0.00356619 [kcal/mol]       0.01492095 [kJ/mol]
      Elst10,r                      0.00568309 [mEh]       0.00356619 [kcal/mol]       0.01492095 [kJ/mol]

    Exchange                        0.00000000 [mEh]       0.00000000 [kcal/mol]       0.00000000 [kJ/mol]
      Exch10                        0.00000000 [mEh]       0.00000000 [kcal/mol]       0.00000000 [kJ/mol]
      Exch10(S^2)                   0.00000000 [mEh]       0.00000000 [kcal/mol]       0.00000000 [kJ/mol]

    Induction                       0.00004078 [mEh]       0.00002559 [kcal/mol]       0.00010707 [kJ/mol]
      Ind20,r                      -0.00004749 [mEh]      -0.00002980 [kcal/mol]      -0.00012467 [kJ/mol]
      Exch-Ind20,r                  0.00000000 [mEh]       0.00000000 [kcal/mol]       0.00000000 [kJ/mol]
      delta HF,r (2)                0.00008827 [mEh]       0.00005539 [kcal/mol]       0.00023174 [kJ/mol]

    Dispersion                     -0.00087825 [mEh]      -0.00055111 [kcal/mol]      -0.00230584 [kJ/mol]
      Disp20                       -0.00087825 [mEh]      -0.00055111 [kcal/mol]      -0.00230584 [kJ/mol]
      Exch-Disp20                   0.00000000 [mEh]       0.00000000 [kcal/mol]       0.00000000 [kJ/mol]
      Disp20 (SS)                  -0.00043912 [mEh]      -0.00027555 [kcal/mol]      -0.00115292 [kJ/mol]
      Disp20 (OS)                  -0.00043912 [mEh]      -0.00027555 [kcal/mol]      -0.00115292 [kJ/mol]
      Exch-Disp20 (SS)              0.00000000 [mEh]       0.00000000 [kcal/mol]       0.00000000 [kJ/mol]
      Exch-Disp20 (OS)              0.00000000 [mEh]       0.00000000 [kcal/mol]       0.00000000 [kJ/mol]

  Total HF                          0.00572387 [mEh]       0.00359178 [kcal/mol]       0.01502802 [kJ/mol]
  Total SAPT0                       0.00484562 [mEh]       0.00304068 [kcal/mol]       0.01272219 [kJ/mol]

  Special recipe for scaled SAPT0 (see Manual):
    Electrostatics sSAPT0           0.00568309 [mEh]       0.00356619 [kcal/mol]       0.01492095 [kJ/mol]
    Exchange sSAPT0                 0.00000000 [mEh]       0.00000000 [kcal/mol]       0.00000000 [kJ/mol]
    Induction sSAPT0                0.00004078 [mEh]       0.00002559 [kcal/mol]       0.00010707 [kJ/mol]
    Dispersion sSAPT0              -0.00087825 [mEh]      -0.00055111 [kcal/mol]      -0.00230584 [kJ/mol]
  Total sSAPT0                      0.00484562 [mEh]       0.00304068 [kcal/mol]       0.01272219 [kJ/mol]
  --------------------------------------------------------------------------------------------------------

*** Psi4 exiting successfully. Buy a developer a beer!
