                               Psi4 1.4rc3

  ==> Input File <==

--------------------------------------------------------------------------
# PSI4 file produced by CrystaLattE

# Generated from:               pyrazole.xyz
# Psithon input for N-mer:      2mer-0+312
# Number of atoms per monomer:  [9, 9]
# Number of replicas:           2
# COM priority:                 2.519484442635e-05
# Minimum COM separations:      18.051
# Separation priority:          3.896320028293e-05
# Minimum monomer separations:  15.609
# Cutoff priority:              1.320908782886e-06
# Nuclear repulsion energy:     371.17801155252516

memory 7 GB

molecule Dimer_0_312 {
  N            6.27981210      -4.25303372       0.19313865
  N            6.06870777      -2.28125697       1.80544317
  H            3.66871156      -5.64628941      -1.96684001
  H            0.69034521      -2.37545694      -0.42864236
  H            3.35917442       0.17650601       3.09265017
  H            7.35266782      -1.99461311       2.90680702
  C            3.77952586      -1.21508453       1.76858172
  C            2.38242998      -2.55505538       0.04607681
  C            4.01771468      -4.38410490      -0.88761863
--
  N           -9.19704487     -31.32125380       6.59269617
  N           -9.40814920     -33.29303055       8.20500069
  H          -11.80814541     -29.92799811       4.43271751
  H          -14.78651176     -33.19883057       5.97091516
  H          -12.11768255     -35.75079353       9.49220769
  H           -8.12418914     -33.57967441       9.30636454
  C          -11.69733111     -34.35920299       8.16813924
  C          -13.09442699     -33.01923214       6.44563434
  C          -11.45914228     -31.19018262       5.51193890
units = au
no_com
no_reorient
}

set {
  e_convergence 10
  d_convergence 10
  scf_type df
  mp2_type df
  cc_type df
  freeze_core true
}

energy('sapt0/aug-cc-pvdz')

--------------------------------------------------------------------------

  //              Dimer HF             //
    Molecular point group: c1
  Charge       = 0
  Multiplicity = 1
  Basis Set: AUG-CC-PVDZ
    Blend: AUG-CC-PVDZ
  Basis Set: (AUG-CC-PVDZ AUX)
    Blend: AUG-CC-PVDZ-JKFIT
  @DF-RHF Final Energy:  -449.52465775618180
    Total Energy =                       -449.5246577561817958
  //            Monomer A HF           //
    Molecular point group: c1
  Multiplicity = 1
  Basis Set: AUG-CC-PVDZ
    Blend: AUG-CC-PVDZ
  Basis Set: (AUG-CC-PVDZ AUX)
    Blend: AUG-CC-PVDZ-JKFIT
  @DF-RHF Final Energy:  -224.76233952113910
    Total Energy =                       -224.7623395211390971
  //            Monomer B HF           //
    Molecular point group: c1

    Geometry (in Bohr), charge = 0, multiplicity = 1:

       Center              X                  Y                   Z               Mass
    ------------   -----------------  -----------------  -----------------  -----------------
      Gh(N)           6.279812100000    -4.253033720000     0.193138650000    14.003074004430
      Gh(N)           6.068707770000    -2.281256970000     1.805443170000    14.003074004430
      Gh(H)           3.668711560000    -5.646289410000    -1.966840010000     1.007825032230
      Gh(H)           0.690345210000    -2.375456940000    -0.428642360000     1.007825032230
      Gh(H)           3.359174420000     0.176506010000     3.092650170000     1.007825032230
      Gh(H)           7.352667820000    -1.994613110000     2.906807020000     1.007825032230
      Gh(C)           3.779525860000    -1.215084530000     1.768581720000    12.000000000000
      Gh(C)           2.382429980000    -2.555055380000     0.046076810000    12.000000000000
      Gh(C)           4.017714680000    -4.384104900000    -0.887618630000    12.000000000000
         N           -9.197044870000   -31.321253800000     6.592696170000    14.003074004430
         N           -9.408149200000   -33.293030550000     8.205000690000    14.003074004430
         H          -11.808145410000   -29.927998110000     4.432717510000     1.007825032230
         H          -14.786511760000   -33.198830570000     5.970915160000     1.007825032230
         H          -12.117682550000   -35.750793530000     9.492207690000     1.007825032230
         H           -8.124189140000   -33.579674410000     9.306364540000     1.007825032230
         C          -11.697331110000   -34.359202990000     8.168139240000    12.000000000000
         C          -13.094426990000   -33.019232140000     6.445634340000    12.000000000000
         C          -11.459142280000   -31.190182620000     5.511938900000    12.000000000000

  Charge       = 0
  Multiplicity = 1
  Basis Set: AUG-CC-PVDZ
    Blend: AUG-CC-PVDZ
  Basis Set: (AUG-CC-PVDZ AUX)
    Blend: AUG-CC-PVDZ-JKFIT

    Orbital Energies [Eh]
    ---------------------

    Doubly Occupied:

       1A    -15.636223     2A    -15.592313     3A    -11.279894
       4A    -11.237784     5A    -11.209891     6A     -1.386922
       7A     -1.121901     8A     -1.066898     9A     -0.872768
      10A     -0.837061    11A     -0.757292    12A     -0.645746
      13A     -0.620834    14A     -0.609140    15A     -0.583920
      16A     -0.461404    17A     -0.370721    18A     -0.346048

  @DF-RHF Final Energy:  -224.76233952571982

   => Energetics <=

    Nuclear Repulsion Energy =            166.6240565536250244
    One-Electron Energy =                -633.4992736066772068
    Two-Electron Energy =                 242.1128775273323868
    Total Energy =                       -224.7623395257198240

  Dipole Moment: [D]
     X:    -1.0235      Y:    -1.6055      Z:     1.4733     Total:     2.4075

    SAPT Results
  --------------------------------------------------------------------------------------------------------
    Electrostatics                  0.02127778 [mEh]       0.01335201 [kcal/mol]       0.05586481 [kJ/mol]
      Elst10,r                      0.02127778 [mEh]       0.01335201 [kcal/mol]       0.05586481 [kJ/mol]

    Exchange                        0.00000000 [mEh]       0.00000000 [kcal/mol]       0.00000000 [kJ/mol]
      Exch10                        0.00000000 [mEh]       0.00000000 [kcal/mol]       0.00000000 [kJ/mol]
      Exch10(S^2)                   0.00000000 [mEh]       0.00000000 [kcal/mol]       0.00000000 [kJ/mol]

    Induction                       0.00001289 [mEh]       0.00000809 [kcal/mol]       0.00003385 [kJ/mol]
      Ind20,r                      -0.00006336 [mEh]      -0.00003976 [kcal/mol]      -0.00016636 [kJ/mol]
      Exch-Ind20,r                  0.00000000 [mEh]       0.00000000 [kcal/mol]       0.00000000 [kJ/mol]
      delta HF,r (2)                0.00007626 [mEh]       0.00004785 [kcal/mol]       0.00020021 [kJ/mol]

    Dispersion                     -0.00073018 [mEh]      -0.00045819 [kcal/mol]      -0.00191709 [kJ/mol]
      Disp20                       -0.00073018 [mEh]      -0.00045819 [kcal/mol]      -0.00191709 [kJ/mol]
      Exch-Disp20                   0.00000000 [mEh]       0.00000000 [kcal/mol]       0.00000000 [kJ/mol]
      Disp20 (SS)                  -0.00036509 [mEh]      -0.00022910 [kcal/mol]      -0.00095854 [kJ/mol]
      Disp20 (OS)                  -0.00036509 [mEh]      -0.00022910 [kcal/mol]      -0.00095854 [kJ/mol]
      Exch-Disp20 (SS)              0.00000000 [mEh]       0.00000000 [kcal/mol]       0.00000000 [kJ/mol]
      Exch-Disp20 (OS)              0.00000000 [mEh]       0.00000000 [kcal/mol]       0.00000000 [kJ/mol]

  Total HF                          0.02129068 [mEh]       0.01336010 [kcal/mol]       0.05589867 [kJ/mol]
  Total SAPT0                       0.02056050 [mEh]       0.01290191 [kcal/mol]       0.05398158 [kJ/mol]

  Special recipe for scaled SAPT0 (see Manual):
    Electrostatics sSAPT0           0.02127778 [mEh]       0.01335201 [kcal/mol]       0.05586481 [kJ/mol]
    Exchange sSAPT0                 0.00000000 [mEh]       0.00000000 [kcal/mol]       0.00000000 [kJ/mol]
    Induction sSAPT0                0.00001289 [mEh]       0.00000809 [kcal/mol]       0.00003385 [kJ/mol]
    Dispersion sSAPT0              -0.00073018 [mEh]      -0.00045819 [kcal/mol]      -0.00191709 [kJ/mol]
  Total sSAPT0                      0.02056050 [mEh]       0.01290191 [kcal/mol]       0.05398158 [kJ/mol]
  --------------------------------------------------------------------------------------------------------

*** Psi4 exiting successfully. Buy a developer a beer!
