                               Psi4 1.4rc3

  ==> Input File <==

--------------------------------------------------------------------------
# PSI4 file produced by CrystaLattE

# Generated from:               pyrazole.xyz
# Psithon input for N-mer:      2mer-0+604
# Number of atoms per monomer:  [9, 9]
# Number of replicas:           1
# COM priority:                 1.642438753132e-05
# Minimum COM separations:      20.818
# Separation priority:          2.429115388754e-05
# Minimum monomer separations:  18.272
# Cutoff priority:              7.035001490000e-07
# Nuclear repulsion energy:     366.1557346627429

memory 7 GB

molecule Dimer_0_604 {
  N            6.27981210      -4.25303372       0.19313865
  N            6.06870777      -2.28125697       1.80544317
  H            3.66871156      -5.64628941      -1.96684001
  H            0.69034521      -2.37545694      -0.42864236
  H            3.35917442       0.17650601       3.09265017
  H            7.35266782      -1.99461311       2.90680702
  C            3.77952586      -1.21508453       1.76858172
  C            2.38242998      -2.55505538       0.04607681
  C            4.01771468      -4.38410490      -0.88761863
--
  N           26.01342381     -33.28089873      11.25733365
  N           26.13228607     -31.24299170      12.79450737
  H           28.68658654     -35.68180870      10.53930329
  H           31.58122310     -33.23926996      13.29444080
  H           28.64479903     -29.52622094      15.19907711
  H           24.66987785     -30.43301464      13.18027269
  C           28.41512247     -30.91281603      13.82355622
  C           29.89811491     -32.84248824      12.93363375
  C           28.33680957     -34.22765606      11.34193580
units = au
no_com
no_reorient
}

set {
  e_convergence 10
  d_convergence 10
  scf_type df
  mp2_type df
  cc_type df
  freeze_core true
}

energy('sapt0/aug-cc-pvdz')

--------------------------------------------------------------------------

  //              Dimer HF             //
    Molecular point group: c1
  Charge       = 0
  Multiplicity = 1
  Basis Set: AUG-CC-PVDZ
    Blend: AUG-CC-PVDZ
  Basis Set: (AUG-CC-PVDZ AUX)
    Blend: AUG-CC-PVDZ-JKFIT
  @DF-RHF Final Energy:  -449.52476265122760
    Total Energy =                       -449.5247626512275474
  //            Monomer A HF           //
    Molecular point group: c1
  Multiplicity = 1
  Basis Set: AUG-CC-PVDZ
    Blend: AUG-CC-PVDZ
  Basis Set: (AUG-CC-PVDZ AUX)
    Blend: AUG-CC-PVDZ-JKFIT
  @DF-RHF Final Energy:  -224.76233952164793
    Total Energy =                       -224.7623395216479310
  //            Monomer B HF           //
    Molecular point group: c1

    Geometry (in Bohr), charge = 0, multiplicity = 1:

       Center              X                  Y                   Z               Mass
    ------------   -----------------  -----------------  -----------------  -----------------
      Gh(N)           6.279812100000    -4.253033720000     0.193138650000    14.003074004430
      Gh(N)           6.068707770000    -2.281256970000     1.805443170000    14.003074004430
      Gh(H)           3.668711560000    -5.646289410000    -1.966840010000     1.007825032230
      Gh(H)           0.690345210000    -2.375456940000    -0.428642360000     1.007825032230
      Gh(H)           3.359174420000     0.176506010000     3.092650170000     1.007825032230
      Gh(H)           7.352667820000    -1.994613110000     2.906807020000     1.007825032230
      Gh(C)           3.779525860000    -1.215084530000     1.768581720000    12.000000000000
      Gh(C)           2.382429980000    -2.555055380000     0.046076810000    12.000000000000
      Gh(C)           4.017714680000    -4.384104900000    -0.887618630000    12.000000000000
         N           26.013423810000   -33.280898730000    11.257333650000    14.003074004430
         N           26.132286070000   -31.242991700000    12.794507370000    14.003074004430
         H           28.686586540000   -35.681808700000    10.539303290000     1.007825032230
         H           31.581223100000   -33.239269960000    13.294440800000     1.007825032230
         H           28.644799030000   -29.526220940000    15.199077110000     1.007825032230
         H           24.669877850000   -30.433014640000    13.180272690000     1.007825032230
         C           28.415122470000   -30.912816030000    13.823556220000    12.000000000000
         C           29.898114910000   -32.842488240000    12.933633750000    12.000000000000
         C           28.336809570000   -34.227656060000    11.341935800000    12.000000000000

  Charge       = 0
  Multiplicity = 1
  Basis Set: AUG-CC-PVDZ
    Blend: AUG-CC-PVDZ
  Basis Set: (AUG-CC-PVDZ AUX)
    Blend: AUG-CC-PVDZ-JKFIT

    Orbital Energies [Eh]
    ---------------------

    Doubly Occupied:

       1A    -15.636233     2A    -15.592291     3A    -11.279903
       4A    -11.237759     5A    -11.209884     6A     -1.387001
       7A     -1.121894     8A     -1.066928     9A     -0.872759
      10A     -0.837039    11A     -0.757272    12A     -0.645745
      13A     -0.620828    14A     -0.609177    15A     -0.583905
      16A     -0.461413    17A     -0.370715    18A     -0.346055

  @DF-RHF Final Energy:  -224.76243506293238

   => Energetics <=

    Nuclear Repulsion Energy =            166.6286028190584148
    One-Electron Energy =                -633.5084734248091536
    Two-Electron Energy =                 242.1174355428183560
    Total Energy =                       -224.7624350629323828

  Dipole Moment: [D]
     X:     0.7394      Y:     1.4336      Z:     1.7871     Total:     2.4074

    SAPT Results
  --------------------------------------------------------------------------------------------------------
    Electrostatics                  0.01191109 [mEh]       0.00747432 [kcal/mol]       0.03127257 [kJ/mol]
      Elst10,r                      0.01191109 [mEh]       0.00747432 [kcal/mol]       0.03127257 [kJ/mol]

    Exchange                        0.00000000 [mEh]       0.00000000 [kcal/mol]       0.00000000 [kJ/mol]
      Exch10                        0.00000000 [mEh]       0.00000000 [kcal/mol]       0.00000000 [kJ/mol]
      Exch10(S^2)                   0.00000000 [mEh]       0.00000000 [kcal/mol]       0.00000000 [kJ/mol]

    Induction                       0.00002226 [mEh]       0.00001397 [kcal/mol]       0.00005844 [kJ/mol]
      Ind20,r                      -0.00002279 [mEh]      -0.00001430 [kcal/mol]      -0.00005984 [kJ/mol]
      Exch-Ind20,r                  0.00000000 [mEh]       0.00000000 [kcal/mol]       0.00000000 [kJ/mol]
      delta HF,r (2)                0.00004505 [mEh]       0.00002827 [kcal/mol]       0.00011828 [kJ/mol]

    Dispersion                     -0.00030675 [mEh]      -0.00019249 [kcal/mol]      -0.00080536 [kJ/mol]
      Disp20                       -0.00030675 [mEh]      -0.00019249 [kcal/mol]      -0.00080536 [kJ/mol]
      Exch-Disp20                   0.00000000 [mEh]       0.00000000 [kcal/mol]       0.00000000 [kJ/mol]
      Disp20 (SS)                  -0.00015337 [mEh]      -0.00009624 [kcal/mol]      -0.00040268 [kJ/mol]
      Disp20 (OS)                  -0.00015337 [mEh]      -0.00009624 [kcal/mol]      -0.00040268 [kJ/mol]
      Exch-Disp20 (SS)              0.00000000 [mEh]       0.00000000 [kcal/mol]       0.00000000 [kJ/mol]
      Exch-Disp20 (OS)              0.00000000 [mEh]       0.00000000 [kcal/mol]       0.00000000 [kJ/mol]

  Total HF                          0.01193335 [mEh]       0.00748829 [kcal/mol]       0.03133101 [kJ/mol]
  Total SAPT0                       0.01162661 [mEh]       0.00729581 [kcal/mol]       0.03052565 [kJ/mol]

  Special recipe for scaled SAPT0 (see Manual):
    Electrostatics sSAPT0           0.01191109 [mEh]       0.00747432 [kcal/mol]       0.03127257 [kJ/mol]
    Exchange sSAPT0                 0.00000000 [mEh]       0.00000000 [kcal/mol]       0.00000000 [kJ/mol]
    Induction sSAPT0                0.00002226 [mEh]       0.00001397 [kcal/mol]       0.00005844 [kJ/mol]
    Dispersion sSAPT0              -0.00030675 [mEh]      -0.00019249 [kcal/mol]      -0.00080536 [kJ/mol]
  Total sSAPT0                      0.01162661 [mEh]       0.00729581 [kcal/mol]       0.03052565 [kJ/mol]
  --------------------------------------------------------------------------------------------------------

*** Psi4 exiting successfully. Buy a developer a beer!
