                               Psi4 1.4rc3

  ==> Input File <==

--------------------------------------------------------------------------
# PSI4 file produced by CrystaLattE

# Generated from:               pyrazole.xyz
# Psithon input for N-mer:      2mer-0+188
# Number of atoms per monomer:  [9, 9]
# Number of replicas:           2
# COM priority:                 3.542686066818e-05
# Minimum COM separations:      16.112
# Separation priority:          5.616847404408e-05
# Minimum monomer separations:  13.818
# Cutoff priority:              2.151081344407e-06
# Nuclear repulsion energy:     375.7852197282507

memory 7 GB

molecule Dimer_0_188 {
  N            6.27981210      -4.25303372       0.19313865
  N            6.06870777      -2.28125697       1.80544317
  H            3.66871156      -5.64628941      -1.96684001
  H            0.69034521      -2.37545694      -0.42864236
  H            3.35917442       0.17650601       3.09265017
  H            7.35266782      -1.99461311       2.90680702
  C            3.77952586      -1.21508453       1.76858172
  C            2.38242998      -2.55505538       0.04607681
  C            4.01771468      -4.38410490      -0.88761863
--
  N           -9.19704487      16.25449114      19.39181122
  N           -9.40814920      14.28271439      21.00411574
  H          -11.80814541      17.64774683      17.23183256
  H          -14.78651176      14.37691436      18.77003021
  H          -12.11768255      11.82495140      22.29132274
  H           -8.12418914      13.99607052      22.10547959
  C          -11.69733111      13.21654194      20.96725429
  C          -13.09442699      14.55651280      19.24474939
  C          -11.45914228      16.38556231      18.31105394
units = au
no_com
no_reorient
}

set {
  e_convergence 10
  d_convergence 10
  scf_type df
  mp2_type df
  cc_type df
  freeze_core true
}

energy('sapt0/aug-cc-pvdz')

--------------------------------------------------------------------------

  //              Dimer HF             //
    Molecular point group: c1
  Charge       = 0
  Multiplicity = 1
  Basis Set: AUG-CC-PVDZ
    Blend: AUG-CC-PVDZ
  Basis Set: (AUG-CC-PVDZ AUX)
    Blend: AUG-CC-PVDZ-JKFIT
  @DF-RHF Final Energy:  -449.52471011479679
    Total Energy =                       -449.5247101147967896
  //            Monomer A HF           //
    Molecular point group: c1
  Multiplicity = 1
  Basis Set: AUG-CC-PVDZ
    Blend: AUG-CC-PVDZ
  Basis Set: (AUG-CC-PVDZ AUX)
    Blend: AUG-CC-PVDZ-JKFIT
  @DF-RHF Final Energy:  -224.76233951933438
    Total Energy =                       -224.7623395193343754
  //            Monomer B HF           //
    Molecular point group: c1

    Geometry (in Bohr), charge = 0, multiplicity = 1:

       Center              X                  Y                   Z               Mass
    ------------   -----------------  -----------------  -----------------  -----------------
      Gh(N)           6.279812100000    -4.253033720000     0.193138650000    14.003074004430
      Gh(N)           6.068707770000    -2.281256970000     1.805443170000    14.003074004430
      Gh(H)           3.668711560000    -5.646289410000    -1.966840010000     1.007825032230
      Gh(H)           0.690345210000    -2.375456940000    -0.428642360000     1.007825032230
      Gh(H)           3.359174420000     0.176506010000     3.092650170000     1.007825032230
      Gh(H)           7.352667820000    -1.994613110000     2.906807020000     1.007825032230
      Gh(C)           3.779525860000    -1.215084530000     1.768581720000    12.000000000000
      Gh(C)           2.382429980000    -2.555055380000     0.046076810000    12.000000000000
      Gh(C)           4.017714680000    -4.384104900000    -0.887618630000    12.000000000000
         N           -9.197044870000    16.254491140000    19.391811220000    14.003074004430
         N           -9.408149200000    14.282714390000    21.004115740000    14.003074004430
         H          -11.808145410000    17.647746830000    17.231832560000     1.007825032230
         H          -14.786511760000    14.376914360000    18.770030210000     1.007825032230
         H          -12.117682550000    11.824951400000    22.291322740000     1.007825032230
         H           -8.124189140000    13.996070520000    22.105479590000     1.007825032230
         C          -11.697331110000    13.216541940000    20.967254290000    12.000000000000
         C          -13.094426990000    14.556512800000    19.244749390000    12.000000000000
         C          -11.459142280000    16.385562310000    18.311053940000    12.000000000000

  Charge       = 0
  Multiplicity = 1
  Basis Set: AUG-CC-PVDZ
    Blend: AUG-CC-PVDZ
  Basis Set: (AUG-CC-PVDZ AUX)
    Blend: AUG-CC-PVDZ-JKFIT

    Orbital Energies [Eh]
    ---------------------

    Doubly Occupied:

       1A    -15.636223     2A    -15.592313     3A    -11.279894
       4A    -11.237784     5A    -11.209891     6A     -1.386922
       7A     -1.121901     8A     -1.066898     9A     -0.872768
      10A     -0.837061    11A     -0.757292    12A     -0.645746
      13A     -0.620834    14A     -0.609140    15A     -0.583920
      16A     -0.461404    17A     -0.370721    18A     -0.346048

  @DF-RHF Final Energy:  -224.76233952984992

   => Energetics <=

    Nuclear Repulsion Energy =            166.6240564331926635
    One-Electron Energy =                -633.4992733953326933
    Two-Electron Energy =                 242.1128774322901052
    Total Energy =                       -224.7623395298499247

  Dipole Moment: [D]
     X:    -1.0235      Y:    -1.6055      Z:     1.4733     Total:     2.4075

    SAPT Results
  --------------------------------------------------------------------------------------------------------
    Electrostatics                 -0.03104746 [mEh]      -0.01948258 [kcal/mol]      -0.08151510 [kJ/mol]
      Elst10,r                     -0.03104746 [mEh]      -0.01948258 [kcal/mol]      -0.08151510 [kJ/mol]

    Exchange                        0.00000000 [mEh]       0.00000000 [kcal/mol]       0.00000000 [kJ/mol]
      Exch10                        0.00000000 [mEh]       0.00000000 [kcal/mol]       0.00000000 [kJ/mol]
      Exch10(S^2)                   0.00000000 [mEh]       0.00000000 [kcal/mol]       0.00000000 [kJ/mol]

    Induction                      -0.00001815 [mEh]      -0.00001139 [kcal/mol]      -0.00004766 [kJ/mol]
      Ind20,r                      -0.00012124 [mEh]      -0.00007608 [kcal/mol]      -0.00031832 [kJ/mol]
      Exch-Ind20,r                  0.00000000 [mEh]       0.00000000 [kcal/mol]       0.00000000 [kJ/mol]
      delta HF,r (2)                0.00010309 [mEh]       0.00006469 [kcal/mol]       0.00027066 [kJ/mol]

    Dispersion                     -0.00142127 [mEh]      -0.00089186 [kcal/mol]      -0.00373156 [kJ/mol]
      Disp20                       -0.00142127 [mEh]      -0.00089186 [kcal/mol]      -0.00373156 [kJ/mol]
      Exch-Disp20                   0.00000000 [mEh]       0.00000000 [kcal/mol]       0.00000000 [kJ/mol]
      Disp20 (SS)                  -0.00071064 [mEh]      -0.00044593 [kcal/mol]      -0.00186578 [kJ/mol]
      Disp20 (OS)                  -0.00071064 [mEh]      -0.00044593 [kcal/mol]      -0.00186578 [kJ/mol]
      Exch-Disp20 (SS)              0.00000000 [mEh]       0.00000000 [kcal/mol]       0.00000000 [kJ/mol]
      Exch-Disp20 (OS)              0.00000000 [mEh]       0.00000000 [kcal/mol]       0.00000000 [kJ/mol]

  Total HF                         -0.03106561 [mEh]      -0.01949397 [kcal/mol]      -0.08156275 [kJ/mol]
  Total SAPT0                      -0.03248689 [mEh]      -0.02038583 [kcal/mol]      -0.08529431 [kJ/mol]

  Special recipe for scaled SAPT0 (see Manual):
    Electrostatics sSAPT0          -0.03104746 [mEh]      -0.01948258 [kcal/mol]      -0.08151510 [kJ/mol]
    Exchange sSAPT0                 0.00000000 [mEh]       0.00000000 [kcal/mol]       0.00000000 [kJ/mol]
    Induction sSAPT0               -0.00001815 [mEh]      -0.00001139 [kcal/mol]      -0.00004766 [kJ/mol]
    Dispersion sSAPT0              -0.00142127 [mEh]      -0.00089186 [kcal/mol]      -0.00373156 [kJ/mol]
  Total sSAPT0                     -0.03248689 [mEh]      -0.02038583 [kcal/mol]      -0.08529431 [kJ/mol]
  --------------------------------------------------------------------------------------------------------

*** Psi4 exiting successfully. Buy a developer a beer!
