                               Psi4 1.4rc3

  ==> Input File <==

--------------------------------------------------------------------------
# PSI4 file produced by CrystaLattE

# Generated from:               pyrazole.xyz
# Psithon input for N-mer:      2mer-0+107
# Number of atoms per monomer:  [9, 9]
# Number of replicas:           1
# COM priority:                 6.096347914854e-05
# Minimum COM separations:      13.446
# Separation priority:          1.304500408333e-04
# Minimum monomer separations:  10.434
# Cutoff priority:              6.615951190147e-06
# Nuclear repulsion energy:     384.2898272250718

memory 7 GB

molecule Dimer_0_107 {
  N            6.27981210      -4.25303372       0.19313865
  N            6.06870777      -2.28125697       1.80544317
  H            3.66871156      -5.64628941      -1.96684001
  H            0.69034521      -2.37545694      -0.42864236
  H            3.35917442       0.17650601       3.09265017
  H            7.35266782      -1.99461311       2.90680702
  C            3.77952586      -1.21508453       1.76858172
  C            2.38242998      -2.55505538       0.04607681
  C            4.01771468      -4.38410490      -0.88761863
--
  N           10.53656684      21.49448368       4.85777613
  N           10.65542910      19.45657665       6.39494984
  H           13.20972957      23.89539365       4.13974577
  H           16.10436613      21.45285491       6.89488328
  H           13.16794206      17.73980589       8.79951959
  H            9.19302089      18.64659959       6.78071517
  C           12.93826550      19.12640098       7.42399869
  C           14.42125794      21.05607319       6.53407622
  C           12.85995261      22.44124101       4.94237828
units = au
no_com
no_reorient
}

set {
  e_convergence 10
  d_convergence 10
  scf_type df
  mp2_type df
  cc_type df
  freeze_core true
}

energy('sapt0/aug-cc-pvdz')

--------------------------------------------------------------------------

  //              Dimer HF             //
    Molecular point group: c1
  Charge       = 0
  Multiplicity = 1
  Basis Set: AUG-CC-PVDZ
    Blend: AUG-CC-PVDZ
  Basis Set: (AUG-CC-PVDZ AUX)
    Blend: AUG-CC-PVDZ-JKFIT
  @DF-RHF Final Energy:  -449.52468062925868
    Total Energy =                       -449.5246806292586825
  //            Monomer A HF           //
    Molecular point group: c1
  Multiplicity = 1
  Basis Set: AUG-CC-PVDZ
    Blend: AUG-CC-PVDZ
  Basis Set: (AUG-CC-PVDZ AUX)
    Blend: AUG-CC-PVDZ-JKFIT
  @DF-RHF Final Energy:  -224.76233966868961
    Total Energy =                       -224.7623396686896058
  //            Monomer B HF           //
    Molecular point group: c1

    Geometry (in Bohr), charge = 0, multiplicity = 1:

       Center              X                  Y                   Z               Mass
    ------------   -----------------  -----------------  -----------------  -----------------
      Gh(N)           6.279812100000    -4.253033720000     0.193138650000    14.003074004430
      Gh(N)           6.068707770000    -2.281256970000     1.805443170000    14.003074004430
      Gh(H)           3.668711560000    -5.646289410000    -1.966840010000     1.007825032230
      Gh(H)           0.690345210000    -2.375456940000    -0.428642360000     1.007825032230
      Gh(H)           3.359174420000     0.176506010000     3.092650170000     1.007825032230
      Gh(H)           7.352667820000    -1.994613110000     2.906807020000     1.007825032230
      Gh(C)           3.779525860000    -1.215084530000     1.768581720000    12.000000000000
      Gh(C)           2.382429980000    -2.555055380000     0.046076810000    12.000000000000
      Gh(C)           4.017714680000    -4.384104900000    -0.887618630000    12.000000000000
         N           10.536566840000    21.494483680000     4.857776130000    14.003074004430
         N           10.655429100000    19.456576650000     6.394949840000    14.003074004430
         H           13.209729570000    23.895393650000     4.139745770000     1.007825032230
         H           16.104366130000    21.452854910000     6.894883280000     1.007825032230
         H           13.167942060000    17.739805890000     8.799519590000     1.007825032230
         H            9.193020890000    18.646599590000     6.780715170000     1.007825032230
         C           12.938265500000    19.126400980000     7.423998690000    12.000000000000
         C           14.421257940000    21.056073190000     6.534076220000    12.000000000000
         C           12.859952610000    22.441241010000     4.942378280000    12.000000000000

  Charge       = 0
  Multiplicity = 1
  Basis Set: AUG-CC-PVDZ
    Blend: AUG-CC-PVDZ
  Basis Set: (AUG-CC-PVDZ AUX)
    Blend: AUG-CC-PVDZ-JKFIT

    Orbital Energies [Eh]
    ---------------------

    Doubly Occupied:

       1A    -15.636233     2A    -15.592291     3A    -11.279903
       4A    -11.237759     5A    -11.209884     6A     -1.387001
       7A     -1.121894     8A     -1.066928     9A     -0.872759
      10A     -0.837039    11A     -0.757272    12A     -0.645745
      13A     -0.620828    14A     -0.609177    15A     -0.583905
      16A     -0.461413    17A     -0.370715    18A     -0.346055

  @DF-RHF Final Energy:  -224.76243514931474

   => Energetics <=

    Nuclear Repulsion Energy =            166.6286029130922657
    One-Electron Energy =                -633.5084741431055591
    Two-Electron Energy =                 242.1174360806985533
    Total Energy =                       -224.7624351493147401

  Dipole Moment: [D]
     X:     0.7394      Y:    -1.4336      Z:     1.7871     Total:     2.4074

    SAPT Results
  --------------------------------------------------------------------------------------------------------
    Electrostatics                  0.09460437 [mEh]       0.05936514 [kcal/mol]       0.24838375 [kJ/mol]
      Elst10,r                      0.09460437 [mEh]       0.05936514 [kcal/mol]       0.24838375 [kJ/mol]

    Exchange                        0.00000011 [mEh]       0.00000007 [kcal/mol]       0.00000028 [kJ/mol]
      Exch10                        0.00000011 [mEh]       0.00000007 [kcal/mol]       0.00000028 [kJ/mol]
      Exch10(S^2)                   0.00000011 [mEh]       0.00000007 [kcal/mol]       0.00000028 [kJ/mol]

    Induction                      -0.00041574 [mEh]      -0.00026088 [kcal/mol]      -0.00109151 [kJ/mol]
      Ind20,r                      -0.00047450 [mEh]      -0.00029776 [kcal/mol]      -0.00124581 [kJ/mol]
      Exch-Ind20,r                  0.00000024 [mEh]       0.00000015 [kcal/mol]       0.00000063 [kJ/mol]
      delta HF,r (2)                0.00005853 [mEh]       0.00003673 [kcal/mol]       0.00015367 [kJ/mol]

    Dispersion                     -0.00469193 [mEh]      -0.00294423 [kcal/mol]      -0.01231865 [kJ/mol]
      Disp20                       -0.00469194 [mEh]      -0.00294424 [kcal/mol]      -0.01231870 [kJ/mol]
      Exch-Disp20                   0.00000002 [mEh]       0.00000001 [kcal/mol]       0.00000004 [kJ/mol]
      Disp20 (SS)                  -0.00234597 [mEh]      -0.00147212 [kcal/mol]      -0.00615935 [kJ/mol]
      Disp20 (OS)                  -0.00234597 [mEh]      -0.00147212 [kcal/mol]      -0.00615935 [kJ/mol]
      Exch-Disp20 (SS)              0.00000001 [mEh]       0.00000001 [kcal/mol]       0.00000004 [kJ/mol]
      Exch-Disp20 (OS)              0.00000000 [mEh]       0.00000000 [kcal/mol]       0.00000001 [kJ/mol]

  Total HF                          0.09418875 [mEh]       0.05910433 [kcal/mol]       0.24729252 [kJ/mol]
  Total SAPT0                       0.08949682 [mEh]       0.05616010 [kcal/mol]       0.23497387 [kJ/mol]

  Special recipe for scaled SAPT0 (see Manual):
    Electrostatics sSAPT0           0.09460437 [mEh]       0.05936514 [kcal/mol]       0.24838375 [kJ/mol]
    Exchange sSAPT0                 0.00000011 [mEh]       0.00000007 [kcal/mol]       0.00000028 [kJ/mol]
    Induction sSAPT0               -0.00041574 [mEh]      -0.00026088 [kcal/mol]      -0.00109151 [kJ/mol]
    Dispersion sSAPT0              -0.00469193 [mEh]      -0.00294423 [kcal/mol]      -0.01231865 [kJ/mol]
  Total sSAPT0                      0.08949682 [mEh]       0.05616010 [kcal/mol]       0.23497387 [kJ/mol]
  --------------------------------------------------------------------------------------------------------

*** Psi4 exiting successfully. Buy a developer a beer!
