                               Psi4 1.4rc3

  ==> Input File <==

--------------------------------------------------------------------------
# PSI4 file produced by CrystaLattE

# Generated from:               pyrazole.xyz
# Psithon input for N-mer:      2mer-0+201
# Number of atoms per monomer:  [9, 9]
# Number of replicas:           1
# COM priority:                 3.412811321547e-05
# Minimum COM separations:      16.314
# Separation priority:          5.601494303738e-05
# Minimum monomer separations:  13.830
# Cutoff priority:              2.143245225328e-06
# Nuclear repulsion energy:     375.29356256040535

memory 7 GB

molecule Dimer_0_201 {
  N            6.27981210      -4.25303372       0.19313865
  N            6.06870777      -2.28125697       1.80544317
  H            3.66871156      -5.64628941      -1.96684001
  H            0.69034521      -2.37545694      -0.42864236
  H            3.35917442       0.17650601       3.09265017
  H            7.35266782      -1.99461311       2.90680702
  C            3.77952586      -1.21508453       1.76858172
  C            2.38242998      -2.55505538       0.04607681
  C            4.01771468      -4.38410490      -0.88761863
--
  N           -4.94029013      21.49448368      17.65689117
  N           -4.82142787      19.45657665      19.19406489
  H           -2.26712739      23.89539365      16.93886082
  H            0.62750917      21.45285491      19.69399832
  H           -2.30891491      17.73980589      21.59863463
  H           -6.28383608      18.64659959      19.57983022
  C           -2.53859146      19.12640098      20.22311374
  C           -1.05559903      21.05607319      19.33319127
  C           -2.61690436      22.44124101      17.74149332
units = au
no_com
no_reorient
}

set {
  e_convergence 10
  d_convergence 10
  scf_type df
  mp2_type df
  cc_type df
  freeze_core true
}

energy('sapt0/aug-cc-pvdz')

--------------------------------------------------------------------------

  //              Dimer HF             //
    Molecular point group: c1
  Charge       = 0
  Multiplicity = 1
  Basis Set: AUG-CC-PVDZ
    Blend: AUG-CC-PVDZ
  Basis Set: (AUG-CC-PVDZ AUX)
    Blend: AUG-CC-PVDZ-JKFIT
  @DF-RHF Final Energy:  -449.52477648474650
    Total Energy =                       -449.5247764847464396
  //            Monomer A HF           //
    Molecular point group: c1
  Multiplicity = 1
  Basis Set: AUG-CC-PVDZ
    Blend: AUG-CC-PVDZ
  Basis Set: (AUG-CC-PVDZ AUX)
    Blend: AUG-CC-PVDZ-JKFIT
  @DF-RHF Final Energy:  -224.76233952059223
    Total Energy =                       -224.7623395205922350
  //            Monomer B HF           //
    Molecular point group: c1

    Geometry (in Bohr), charge = 0, multiplicity = 1:

       Center              X                  Y                   Z               Mass
    ------------   -----------------  -----------------  -----------------  -----------------
      Gh(N)           6.279812100000    -4.253033720000     0.193138650000    14.003074004430
      Gh(N)           6.068707770000    -2.281256970000     1.805443170000    14.003074004430
      Gh(H)           3.668711560000    -5.646289410000    -1.966840010000     1.007825032230
      Gh(H)           0.690345210000    -2.375456940000    -0.428642360000     1.007825032230
      Gh(H)           3.359174420000     0.176506010000     3.092650170000     1.007825032230
      Gh(H)           7.352667820000    -1.994613110000     2.906807020000     1.007825032230
      Gh(C)           3.779525860000    -1.215084530000     1.768581720000    12.000000000000
      Gh(C)           2.382429980000    -2.555055380000     0.046076810000    12.000000000000
      Gh(C)           4.017714680000    -4.384104900000    -0.887618630000    12.000000000000
         N           -4.940290130000    21.494483680000    17.656891170000    14.003074004430
         N           -4.821427870000    19.456576650000    19.194064890000    14.003074004430
         H           -2.267127390000    23.895393650000    16.938860820000     1.007825032230
         H            0.627509170000    21.452854910000    19.693998320000     1.007825032230
         H           -2.308914910000    17.739805890000    21.598634630000     1.007825032230
         H           -6.283836080000    18.646599590000    19.579830220000     1.007825032230
         C           -2.538591460000    19.126400980000    20.223113740000    12.000000000000
         C           -1.055599030000    21.056073190000    19.333191270000    12.000000000000
         C           -2.616904360000    22.441241010000    17.741493320000    12.000000000000

  Charge       = 0
  Multiplicity = 1
  Basis Set: AUG-CC-PVDZ
    Blend: AUG-CC-PVDZ
  Basis Set: (AUG-CC-PVDZ AUX)
    Blend: AUG-CC-PVDZ-JKFIT

    Orbital Energies [Eh]
    ---------------------

    Doubly Occupied:

       1A    -15.636233     2A    -15.592291     3A    -11.279903
       4A    -11.237759     5A    -11.209884     6A     -1.387001
       7A     -1.121894     8A     -1.066928     9A     -0.872759
      10A     -0.837039    11A     -0.757272    12A     -0.645745
      13A     -0.620828    14A     -0.609177    15A     -0.583905
      16A     -0.461413    17A     -0.370715    18A     -0.346055

  @DF-RHF Final Energy:  -224.76243506686023

   => Energetics <=

    Nuclear Repulsion Energy =            166.6286027396206464
    One-Electron Energy =                -633.5084732915074710
    Two-Electron Energy =                 242.1174354850265900
    Total Energy =                       -224.7624350668602347

  Dipole Moment: [D]
     X:     0.7394      Y:    -1.4336      Z:     1.7871     Total:     2.4074

    SAPT Results
  --------------------------------------------------------------------------------------------------------
    Electrostatics                 -0.00187401 [mEh]      -0.00117596 [kcal/mol]      -0.00492023 [kJ/mol]
      Elst10,r                     -0.00187401 [mEh]      -0.00117596 [kcal/mol]      -0.00492023 [kJ/mol]

    Exchange                        0.00000000 [mEh]       0.00000000 [kcal/mol]       0.00000000 [kJ/mol]
      Exch10                        0.00000000 [mEh]       0.00000000 [kcal/mol]       0.00000000 [kJ/mol]
      Exch10(S^2)                   0.00000000 [mEh]       0.00000000 [kcal/mol]       0.00000000 [kJ/mol]

    Induction                      -0.00002328 [mEh]      -0.00001461 [kcal/mol]      -0.00006112 [kJ/mol]
      Ind20,r                      -0.00010934 [mEh]      -0.00006861 [kcal/mol]      -0.00028708 [kJ/mol]
      Exch-Ind20,r                  0.00000000 [mEh]       0.00000000 [kcal/mol]       0.00000000 [kJ/mol]
      delta HF,r (2)                0.00008606 [mEh]       0.00005401 [kcal/mol]       0.00022596 [kJ/mol]

    Dispersion                     -0.00134992 [mEh]      -0.00084709 [kcal/mol]      -0.00354421 [kJ/mol]
      Disp20                       -0.00134992 [mEh]      -0.00084709 [kcal/mol]      -0.00354421 [kJ/mol]
      Exch-Disp20                   0.00000000 [mEh]       0.00000000 [kcal/mol]       0.00000000 [kJ/mol]
      Disp20 (SS)                  -0.00067496 [mEh]      -0.00042354 [kcal/mol]      -0.00177210 [kJ/mol]
      Disp20 (OS)                  -0.00067496 [mEh]      -0.00042354 [kcal/mol]      -0.00177210 [kJ/mol]
      Exch-Disp20 (SS)              0.00000000 [mEh]       0.00000000 [kcal/mol]       0.00000000 [kJ/mol]
      Exch-Disp20 (OS)              0.00000000 [mEh]       0.00000000 [kcal/mol]       0.00000000 [kJ/mol]

  Total HF                         -0.00189729 [mEh]      -0.00119057 [kcal/mol]      -0.00498134 [kJ/mol]
  Total SAPT0                      -0.00324721 [mEh]      -0.00203766 [kcal/mol]      -0.00852555 [kJ/mol]

  Special recipe for scaled SAPT0 (see Manual):
    Electrostatics sSAPT0          -0.00187401 [mEh]      -0.00117596 [kcal/mol]      -0.00492023 [kJ/mol]
    Exchange sSAPT0                 0.00000000 [mEh]       0.00000000 [kcal/mol]       0.00000000 [kJ/mol]
    Induction sSAPT0               -0.00002328 [mEh]      -0.00001461 [kcal/mol]      -0.00006112 [kJ/mol]
    Dispersion sSAPT0              -0.00134992 [mEh]      -0.00084709 [kcal/mol]      -0.00354421 [kJ/mol]
  Total sSAPT0                     -0.00324721 [mEh]      -0.00203766 [kcal/mol]      -0.00852555 [kJ/mol]
  --------------------------------------------------------------------------------------------------------

*** Psi4 exiting successfully. Buy a developer a beer!
