                               Psi4 1.4rc3

  ==> Input File <==

--------------------------------------------------------------------------
# PSI4 file produced by CrystaLattE

# Generated from:               pyrazole.xyz
# Psithon input for N-mer:      2mer-0+180
# Number of atoms per monomer:  [9, 9]
# Number of replicas:           1
# COM priority:                 2.634428282114e-05
# Minimum COM separations:      17.784
# Separation priority:          4.519490502048e-05
# Minimum monomer separations:  14.856
# Cutoff priority:              1.609852071325e-06
# Nuclear repulsion energy:     371.92446650408283

memory 7 GB

molecule Dimer_0_180 {
  N            6.27981210      -4.25303372       0.19313865
  N            6.06870777      -2.28125697       1.80544317
  H            3.66871156      -5.64628941      -1.96684001
  H            0.69034521      -2.37545694      -0.42864236
  H            3.35917442       0.17650601       3.09265017
  H            7.35266782      -1.99461311       2.90680702
  C            3.77952586      -1.21508453       1.76858172
  C            2.38242998      -2.55505538       0.04607681
  C            4.01771468      -4.38410490      -0.88761863
--
  N          -20.41714710      21.49448368       4.85777613
  N          -20.29828483      19.45657665       6.39494984
  H          -17.74398436      23.89539365       4.13974577
  H          -14.84934780      21.45285491       6.89488328
  H          -17.78577187      17.73980589       8.79951959
  H          -21.76069305      18.64659959       6.78071517
  C          -18.01544843      19.12640098       7.42399869
  C          -16.53245600      21.05607319       6.53407622
  C          -18.09376133      22.44124101       4.94237828
units = au
no_com
no_reorient
}

set {
  e_convergence 10
  d_convergence 10
  scf_type df
  mp2_type df
  cc_type df
  freeze_core true
}

energy('sapt0/aug-cc-pvdz')

--------------------------------------------------------------------------

  //              Dimer HF             //
    Molecular point group: c1
  Charge       = 0
  Multiplicity = 1
  Basis Set: AUG-CC-PVDZ
    Blend: AUG-CC-PVDZ
  Basis Set: (AUG-CC-PVDZ AUX)
    Blend: AUG-CC-PVDZ-JKFIT
  @DF-RHF Final Energy:  -449.52475278135660
    Total Energy =                       -449.5247527813565966
  //            Monomer A HF           //
    Molecular point group: c1
  Multiplicity = 1
  Basis Set: AUG-CC-PVDZ
    Blend: AUG-CC-PVDZ
  Basis Set: (AUG-CC-PVDZ AUX)
    Blend: AUG-CC-PVDZ-JKFIT
  @DF-RHF Final Energy:  -224.76233952050853
    Total Energy =                       -224.7623395205085330
  //            Monomer B HF           //
    Molecular point group: c1

    Geometry (in Bohr), charge = 0, multiplicity = 1:

       Center              X                  Y                   Z               Mass
    ------------   -----------------  -----------------  -----------------  -----------------
      Gh(N)           6.279812100000    -4.253033720000     0.193138650000    14.003074004430
      Gh(N)           6.068707770000    -2.281256970000     1.805443170000    14.003074004430
      Gh(H)           3.668711560000    -5.646289410000    -1.966840010000     1.007825032230
      Gh(H)           0.690345210000    -2.375456940000    -0.428642360000     1.007825032230
      Gh(H)           3.359174420000     0.176506010000     3.092650170000     1.007825032230
      Gh(H)           7.352667820000    -1.994613110000     2.906807020000     1.007825032230
      Gh(C)           3.779525860000    -1.215084530000     1.768581720000    12.000000000000
      Gh(C)           2.382429980000    -2.555055380000     0.046076810000    12.000000000000
      Gh(C)           4.017714680000    -4.384104900000    -0.887618630000    12.000000000000
         N          -20.417147100000    21.494483680000     4.857776130000    14.003074004430
         N          -20.298284830000    19.456576650000     6.394949840000    14.003074004430
         H          -17.743984360000    23.895393650000     4.139745770000     1.007825032230
         H          -14.849347800000    21.452854910000     6.894883280000     1.007825032230
         H          -17.785771870000    17.739805890000     8.799519590000     1.007825032230
         H          -21.760693050000    18.646599590000     6.780715170000     1.007825032230
         C          -18.015448430000    19.126400980000     7.423998690000    12.000000000000
         C          -16.532456000000    21.056073190000     6.534076220000    12.000000000000
         C          -18.093761330000    22.441241010000     4.942378280000    12.000000000000

  Charge       = 0
  Multiplicity = 1
  Basis Set: AUG-CC-PVDZ
    Blend: AUG-CC-PVDZ
  Basis Set: (AUG-CC-PVDZ AUX)
    Blend: AUG-CC-PVDZ-JKFIT

    Orbital Energies [Eh]
    ---------------------

    Doubly Occupied:

       1A    -15.636233     2A    -15.592291     3A    -11.279903
       4A    -11.237759     5A    -11.209884     6A     -1.387001
       7A     -1.121894     8A     -1.066928     9A     -0.872759
      10A     -0.837039    11A     -0.757272    12A     -0.645745
      13A     -0.620828    14A     -0.609177    15A     -0.583905
      16A     -0.461413    17A     -0.370715    18A     -0.346055

  @DF-RHF Final Energy:  -224.76243506598229

   => Energetics <=

    Nuclear Repulsion Energy =            166.6286029091340311
    One-Electron Energy =                -633.5084736216135752
    Two-Electron Energy =                 242.1174356464972561
    Total Energy =                       -224.7624350659822881

  Dipole Moment: [D]
     X:     0.7394      Y:    -1.4336      Z:     1.7871     Total:     2.4074

    SAPT Results
  --------------------------------------------------------------------------------------------------------
    Electrostatics                  0.02176279 [mEh]       0.01365636 [kcal/mol]       0.05713820 [kJ/mol]
      Elst10,r                      0.02176279 [mEh]       0.01365636 [kcal/mol]       0.05713820 [kJ/mol]

    Exchange                        0.00000000 [mEh]       0.00000000 [kcal/mol]       0.00000000 [kJ/mol]
      Exch10                        0.00000000 [mEh]       0.00000000 [kcal/mol]       0.00000000 [kJ/mol]
      Exch10(S^2)                   0.00000000 [mEh]       0.00000000 [kcal/mol]       0.00000000 [kJ/mol]

    Induction                       0.00004234 [mEh]       0.00002657 [kcal/mol]       0.00011117 [kJ/mol]
      Ind20,r                      -0.00005839 [mEh]      -0.00003664 [kcal/mol]      -0.00015330 [kJ/mol]
      Exch-Ind20,r                  0.00000000 [mEh]       0.00000000 [kcal/mol]       0.00000000 [kJ/mol]
      delta HF,r (2)                0.00010073 [mEh]       0.00006321 [kcal/mol]       0.00026447 [kJ/mol]

    Dispersion                     -0.00088704 [mEh]      -0.00055662 [kcal/mol]      -0.00232891 [kJ/mol]
      Disp20                       -0.00088704 [mEh]      -0.00055662 [kcal/mol]      -0.00232891 [kJ/mol]
      Exch-Disp20                   0.00000000 [mEh]       0.00000000 [kcal/mol]       0.00000000 [kJ/mol]
      Disp20 (SS)                  -0.00044352 [mEh]      -0.00027831 [kcal/mol]      -0.00116446 [kJ/mol]
      Disp20 (OS)                  -0.00044352 [mEh]      -0.00027831 [kcal/mol]      -0.00116446 [kJ/mol]
      Exch-Disp20 (SS)              0.00000000 [mEh]       0.00000000 [kcal/mol]       0.00000000 [kJ/mol]
      Exch-Disp20 (OS)              0.00000000 [mEh]       0.00000000 [kcal/mol]       0.00000000 [kJ/mol]

  Total HF                          0.02180513 [mEh]       0.01368293 [kcal/mol]       0.05724937 [kJ/mol]
  Total SAPT0                       0.02091810 [mEh]       0.01312631 [kcal/mol]       0.05492046 [kJ/mol]

  Special recipe for scaled SAPT0 (see Manual):
    Electrostatics sSAPT0           0.02176279 [mEh]       0.01365636 [kcal/mol]       0.05713820 [kJ/mol]
    Exchange sSAPT0                 0.00000000 [mEh]       0.00000000 [kcal/mol]       0.00000000 [kJ/mol]
    Induction sSAPT0                0.00004234 [mEh]       0.00002657 [kcal/mol]       0.00011117 [kJ/mol]
    Dispersion sSAPT0              -0.00088704 [mEh]      -0.00055662 [kcal/mol]      -0.00232891 [kJ/mol]
  Total sSAPT0                      0.02091810 [mEh]       0.01312631 [kcal/mol]       0.05492046 [kJ/mol]
  --------------------------------------------------------------------------------------------------------

*** Psi4 exiting successfully. Buy a developer a beer!
