                               Psi4 1.4rc3

  ==> Input File <==

--------------------------------------------------------------------------
# PSI4 file produced by CrystaLattE

# Generated from:               pyrazole.xyz
# Psithon input for N-mer:      2mer-0+26
# Number of atoms per monomer:  [9, 9]
# Number of replicas:           2
# COM priority:                 2.006894018250e-04
# Minimum COM separations:      9.038
# Separation priority:          3.643697312232e-04
# Minimum monomer separations:  7.409
# Cutoff priority:              2.602493916641e-05
# Nuclear repulsion energy:     408.3233682467862

memory 7 GB

molecule Dimer_0_26 {
  N            6.27981210      -4.25303372       0.19313865
  N            6.06870777      -2.28125697       1.80544317
  H            3.66871156      -5.64628941      -1.96684001
  H            0.69034521      -2.37545694      -0.42864236
  H            3.35917442       0.17650601       3.09265017
  H            7.35266782      -1.99461311       2.90680702
  C            3.77952586      -1.21508453       1.76858172
  C            2.38242998      -2.55505538       0.04607681
  C            4.01771468      -4.38410490      -0.88761863
--
  N           -1.45861638       4.36055490     -12.94617688
  N           -1.66972071       2.38877815     -14.55848140
  H           -4.06971692       5.75381059     -10.78619822
  H           -7.04808328       2.48297813     -12.32439587
  H           -4.37925406      -0.06898483     -15.84568840
  H           -0.38576066       2.10213429     -15.65984525
  C           -3.95890263       1.32260571     -14.52161995
  C           -5.35599851       2.66257657     -12.79911505
  C           -3.72071380       4.49162608     -11.86541960
units = au
no_com
no_reorient
}

set {
  e_convergence 10
  d_convergence 10
  scf_type df
  mp2_type df
  cc_type df
  freeze_core true
}

energy('sapt0/aug-cc-pvdz')

--------------------------------------------------------------------------

  //              Dimer HF             //
    Molecular point group: c1
  Charge       = 0
  Multiplicity = 1
  Basis Set: AUG-CC-PVDZ
    Blend: AUG-CC-PVDZ
  Basis Set: (AUG-CC-PVDZ AUX)
    Blend: AUG-CC-PVDZ-JKFIT
  @DF-RHF Final Energy:  -449.52466416870493
    Total Energy =                       -449.5246641687049305
  //            Monomer A HF           //
    Molecular point group: c1
  Multiplicity = 1
  Basis Set: AUG-CC-PVDZ
    Blend: AUG-CC-PVDZ
  Basis Set: (AUG-CC-PVDZ AUX)
    Blend: AUG-CC-PVDZ-JKFIT
  @DF-RHF Final Energy:  -224.76235016059724
    Total Energy =                       -224.7623501605972365
  //            Monomer B HF           //
    Molecular point group: c1

    Geometry (in Bohr), charge = 0, multiplicity = 1:

       Center              X                  Y                   Z               Mass
    ------------   -----------------  -----------------  -----------------  -----------------
      Gh(N)           6.279812100000    -4.253033720000     0.193138650000    14.003074004430
      Gh(N)           6.068707770000    -2.281256970000     1.805443170000    14.003074004430
      Gh(H)           3.668711560000    -5.646289410000    -1.966840010000     1.007825032230
      Gh(H)           0.690345210000    -2.375456940000    -0.428642360000     1.007825032230
      Gh(H)           3.359174420000     0.176506010000     3.092650170000     1.007825032230
      Gh(H)           7.352667820000    -1.994613110000     2.906807020000     1.007825032230
      Gh(C)           3.779525860000    -1.215084530000     1.768581720000    12.000000000000
      Gh(C)           2.382429980000    -2.555055380000     0.046076810000    12.000000000000
      Gh(C)           4.017714680000    -4.384104900000    -0.887618630000    12.000000000000
         N           -1.458616380000     4.360554900000   -12.946176880000    14.003074004430
         N           -1.669720710000     2.388778150000   -14.558481400000    14.003074004430
         H           -4.069716920000     5.753810590000   -10.786198220000     1.007825032230
         H           -7.048083280000     2.482978130000   -12.324395870000     1.007825032230
         H           -4.379254060000    -0.068984830000   -15.845688400000     1.007825032230
         H           -0.385760660000     2.102134290000   -15.659845250000     1.007825032230
         C           -3.958902630000     1.322605710000   -14.521619950000    12.000000000000
         C           -5.355998510000     2.662576570000   -12.799115050000    12.000000000000
         C           -3.720713800000     4.491626080000   -11.865419600000    12.000000000000

  Charge       = 0
  Multiplicity = 1
  Basis Set: AUG-CC-PVDZ
    Blend: AUG-CC-PVDZ
  Basis Set: (AUG-CC-PVDZ AUX)
    Blend: AUG-CC-PVDZ-JKFIT

    Orbital Energies [Eh]
    ---------------------

    Doubly Occupied:

       1A    -15.636228     2A    -15.592318     3A    -11.279897
       4A    -11.237783     5A    -11.209895     6A     -1.386926
       7A     -1.121905     8A     -1.066903     9A     -0.872773
      10A     -0.837065    11A     -0.757297    12A     -0.645751
      13A     -0.620838    14A     -0.609144    15A     -0.583926
      16A     -0.461408    17A     -0.370724    18A     -0.346051

  @DF-RHF Final Energy:  -224.76235164950032

   => Energetics <=

    Nuclear Repulsion Energy =            166.6240563307950424
    One-Electron Energy =                -633.4991513142600752
    Two-Electron Energy =                 242.1127433339647155
    Total Energy =                       -224.7623516495003173

  Dipole Moment: [D]
     X:    -1.0235      Y:    -1.6058      Z:    -1.4733     Total:     2.4076

    SAPT Results
  --------------------------------------------------------------------------------------------------------
    Electrostatics                  0.04006123 [mEh]       0.02513880 [kcal/mol]       0.10518073 [kJ/mol]
      Elst10,r                      0.04006123 [mEh]       0.02513880 [kcal/mol]       0.10518073 [kJ/mol]

    Exchange                        0.00000051 [mEh]       0.00000032 [kcal/mol]       0.00000134 [kJ/mol]
      Exch10                        0.00000051 [mEh]       0.00000032 [kcal/mol]       0.00000134 [kJ/mol]
      Exch10(S^2)                   0.00000051 [mEh]       0.00000032 [kcal/mol]       0.00000134 [kJ/mol]

    Induction                      -0.00242034 [mEh]      -0.00151879 [kcal/mol]      -0.00635461 [kJ/mol]
      Ind20,r                      -0.00273116 [mEh]      -0.00171383 [kcal/mol]      -0.00717066 [kJ/mol]
      Exch-Ind20,r                  0.00001590 [mEh]       0.00000998 [kcal/mol]       0.00004176 [kJ/mol]
      delta HF,r (2)                0.00029491 [mEh]       0.00018506 [kcal/mol]       0.00077429 [kJ/mol]

    Dispersion                     -0.04710076 [mEh]      -0.02955617 [kcal/mol]      -0.12366302 [kJ/mol]
      Disp20                       -0.04710474 [mEh]      -0.02955867 [kcal/mol]      -0.12367349 [kJ/mol]
      Exch-Disp20                   0.00000399 [mEh]       0.00000250 [kcal/mol]       0.00001047 [kJ/mol]
      Disp20 (SS)                  -0.02355237 [mEh]      -0.01477934 [kcal/mol]      -0.06183674 [kJ/mol]
      Disp20 (OS)                  -0.02355237 [mEh]      -0.01477934 [kcal/mol]      -0.06183674 [kJ/mol]
      Exch-Disp20 (SS)              0.00000335 [mEh]       0.00000210 [kcal/mol]       0.00000881 [kJ/mol]
      Exch-Disp20 (OS)              0.00000063 [mEh]       0.00000040 [kcal/mol]       0.00000166 [kJ/mol]

  Total HF                          0.03764139 [mEh]       0.02362033 [kcal/mol]       0.09882746 [kJ/mol]
  Total SAPT0                      -0.00945936 [mEh]      -0.00593584 [kcal/mol]      -0.02483556 [kJ/mol]

  Special recipe for scaled SAPT0 (see Manual):
    Electrostatics sSAPT0           0.04006123 [mEh]       0.02513880 [kcal/mol]       0.10518073 [kJ/mol]
    Exchange sSAPT0                 0.00000051 [mEh]       0.00000032 [kcal/mol]       0.00000134 [kJ/mol]
    Induction sSAPT0               -0.00242034 [mEh]      -0.00151879 [kcal/mol]      -0.00635461 [kJ/mol]
    Dispersion sSAPT0              -0.04710076 [mEh]      -0.02955617 [kcal/mol]      -0.12366302 [kJ/mol]
  Total sSAPT0                     -0.00945936 [mEh]      -0.00593584 [kcal/mol]      -0.02483556 [kJ/mol]
  --------------------------------------------------------------------------------------------------------

*** Psi4 exiting successfully. Buy a developer a beer!
