                               Psi4 1.4rc3

  ==> Input File <==

--------------------------------------------------------------------------
# PSI4 file produced by CrystaLattE

# Generated from:               pyrazole.xyz
# Psithon input for N-mer:      2mer-0+11
# Number of atoms per monomer:  [9, 9]
# Number of replicas:           2
# COM priority:                 2.697439377099e-04
# Minimum COM separations:      8.190
# Separation priority:          1.191686034543e-03
# Minimum monomer separations:  4.991
# Cutoff priority:              1.263424030934e-04
# Nuclear repulsion energy:     417.70877850939814

memory 7 GB

molecule Dimer_0_11 {
  N            6.27981210      -4.25303372       0.19313865
  N            6.06870777      -2.28125697       1.80544317
  H            3.66871156      -5.64628941      -1.96684001
  H            0.69034521      -2.37545694      -0.42864236
  H            3.35917442       0.17650601       3.09265017
  H            7.35266782      -1.99461311       2.90680702
  C            3.77952586      -1.21508453       1.76858172
  C            2.38242998      -2.55505538       0.04607681
  C            4.01771468      -4.38410490      -0.88761863
--
  N           -9.19704487      -4.25303372       0.19313865
  N           -9.40814920      -2.28125697       1.80544317
  H          -11.80814541      -5.64628941      -1.96684001
  H          -14.78651176      -2.37545694      -0.42864236
  H          -12.11768255       0.17650601       3.09265017
  H           -8.12418914      -1.99461311       2.90680702
  C          -11.69733111      -1.21508453       1.76858172
  C          -13.09442699      -2.55505538       0.04607681
  C          -11.45914228      -4.38410490      -0.88761863
units = au
no_com
no_reorient
}

set {
  e_convergence 10
  d_convergence 10
  scf_type df
  mp2_type df
  cc_type df
  freeze_core true
}

energy('sapt0/aug-cc-pvdz')

--------------------------------------------------------------------------

  //              Dimer HF             //
    Molecular point group: c1
  Charge       = 0
  Multiplicity = 1
  Basis Set: AUG-CC-PVDZ
    Blend: AUG-CC-PVDZ
  Basis Set: (AUG-CC-PVDZ AUX)
    Blend: AUG-CC-PVDZ-JKFIT
  @DF-RHF Final Energy:  -449.52472269844577
    Total Energy =                       -449.5247226984457711
  //            Monomer A HF           //
    Molecular point group: c1
  Multiplicity = 1
  Basis Set: AUG-CC-PVDZ
    Blend: AUG-CC-PVDZ
  Basis Set: (AUG-CC-PVDZ AUX)
    Blend: AUG-CC-PVDZ-JKFIT
  @DF-RHF Final Energy:  -224.76237729621613
    Total Energy =                       -224.7623772962161297
  //            Monomer B HF           //
    Molecular point group: c1

    Geometry (in Bohr), charge = 0, multiplicity = 1:

       Center              X                  Y                   Z               Mass
    ------------   -----------------  -----------------  -----------------  -----------------
      Gh(N)           6.279812100000    -4.253033720000     0.193138650000    14.003074004430
      Gh(N)           6.068707770000    -2.281256970000     1.805443170000    14.003074004430
      Gh(H)           3.668711560000    -5.646289410000    -1.966840010000     1.007825032230
      Gh(H)           0.690345210000    -2.375456940000    -0.428642360000     1.007825032230
      Gh(H)           3.359174420000     0.176506010000     3.092650170000     1.007825032230
      Gh(H)           7.352667820000    -1.994613110000     2.906807020000     1.007825032230
      Gh(C)           3.779525860000    -1.215084530000     1.768581720000    12.000000000000
      Gh(C)           2.382429980000    -2.555055380000     0.046076810000    12.000000000000
      Gh(C)           4.017714680000    -4.384104900000    -0.887618630000    12.000000000000
         N           -9.197044870000    -4.253033720000     0.193138650000    14.003074004430
         N           -9.408149200000    -2.281256970000     1.805443170000    14.003074004430
         H          -11.808145410000    -5.646289410000    -1.966840010000     1.007825032230
         H          -14.786511760000    -2.375456940000    -0.428642360000     1.007825032230
         H          -12.117682550000     0.176506010000     3.092650170000     1.007825032230
         H           -8.124189140000    -1.994613110000     2.906807020000     1.007825032230
         C          -11.697331110000    -1.215084530000     1.768581720000    12.000000000000
         C          -13.094426990000    -2.555055380000     0.046076810000    12.000000000000
         C          -11.459142280000    -4.384104900000    -0.887618630000    12.000000000000

  Charge       = 0
  Multiplicity = 1
  Basis Set: AUG-CC-PVDZ
    Blend: AUG-CC-PVDZ
  Basis Set: (AUG-CC-PVDZ AUX)
    Blend: AUG-CC-PVDZ-JKFIT

    Orbital Energies [Eh]
    ---------------------

    Doubly Occupied:

       1A    -15.636226     2A    -15.592327     3A    -11.279887
       4A    -11.237780     5A    -11.209884     6A     -1.386921
       7A     -1.121903     8A     -1.066897     9A     -0.872768
      10A     -0.837061    11A     -0.757292    12A     -0.645746
      13A     -0.620834    14A     -0.609137    15A     -0.583921
      16A     -0.461406    17A     -0.370719    18A     -0.346049

  @DF-RHF Final Energy:  -224.76237063372628

   => Energetics <=

    Nuclear Repulsion Energy =            166.6240564570979359
    One-Electron Energy =                -633.4993326969818099
    Two-Electron Energy =                 242.1129056061575966
    Total Energy =                       -224.7623706337262774

  Dipole Moment: [D]
     X:    -1.0222      Y:     1.6055      Z:     1.4734     Total:     2.4070

    SAPT Results
  --------------------------------------------------------------------------------------------------------
    Electrostatics                  0.03594044 [mEh]       0.02255296 [kcal/mol]       0.09436160 [kJ/mol]
      Elst10,r                      0.03594044 [mEh]       0.02255296 [kcal/mol]       0.09436160 [kJ/mol]

    Exchange                        0.00031546 [mEh]       0.00019796 [kcal/mol]       0.00082825 [kJ/mol]
      Exch10                        0.00031546 [mEh]       0.00019796 [kcal/mol]       0.00082825 [kJ/mol]
      Exch10(S^2)                   0.00031546 [mEh]       0.00019796 [kcal/mol]       0.00082825 [kJ/mol]

    Induction                      -0.01102440 [mEh]      -0.00691792 [kcal/mol]      -0.02894457 [kJ/mol]
      Ind20,r                      -0.01163841 [mEh]      -0.00730322 [kcal/mol]      -0.03055665 [kJ/mol]
      Exch-Ind20,r                  0.00008806 [mEh]       0.00005526 [kcal/mol]       0.00023121 [kJ/mol]
      delta HF,r (2)                0.00052595 [mEh]       0.00033004 [kcal/mol]       0.00138088 [kJ/mol]

    Dispersion                     -0.13432362 [mEh]      -0.08428934 [kcal/mol]      -0.35266662 [kJ/mol]
      Disp20                       -0.13439382 [mEh]      -0.08433339 [kcal/mol]      -0.35285092 [kJ/mol]
      Exch-Disp20                   0.00007020 [mEh]       0.00004405 [kcal/mol]       0.00018430 [kJ/mol]
      Disp20 (SS)                  -0.06719691 [mEh]      -0.04216670 [kcal/mol]      -0.17642546 [kJ/mol]
      Disp20 (OS)                  -0.06719691 [mEh]      -0.04216670 [kcal/mol]      -0.17642546 [kJ/mol]
      Exch-Disp20 (SS)              0.00005205 [mEh]       0.00003266 [kcal/mol]       0.00013666 [kJ/mol]
      Exch-Disp20 (OS)              0.00001814 [mEh]       0.00001139 [kcal/mol]       0.00004764 [kJ/mol]

  Total HF                          0.02523150 [mEh]       0.01583300 [kcal/mol]       0.06624529 [kJ/mol]
  Total SAPT0                      -0.10909212 [mEh]      -0.06845634 [kcal/mol]      -0.28642133 [kJ/mol]

  Special recipe for scaled SAPT0 (see Manual):
    Electrostatics sSAPT0           0.03594044 [mEh]       0.02255296 [kcal/mol]       0.09436160 [kJ/mol]
    Exchange sSAPT0                 0.00031546 [mEh]       0.00019796 [kcal/mol]       0.00082825 [kJ/mol]
    Induction sSAPT0               -0.01102440 [mEh]      -0.00691792 [kcal/mol]      -0.02894457 [kJ/mol]
    Dispersion sSAPT0              -0.13432362 [mEh]      -0.08428934 [kcal/mol]      -0.35266662 [kJ/mol]
  Total sSAPT0                     -0.10909212 [mEh]      -0.06845634 [kcal/mol]      -0.28642133 [kJ/mol]
  --------------------------------------------------------------------------------------------------------

*** Psi4 exiting successfully. Buy a developer a beer!
