                               Psi4 1.4rc3

  ==> Input File <==

--------------------------------------------------------------------------
# PSI4 file produced by CrystaLattE

# Generated from:               pyrazole.xyz
# Psithon input for N-mer:      2mer-0+164
# Number of atoms per monomer:  [9, 9]
# Number of replicas:           1
# COM priority:                 3.504488082730e-05
# Minimum COM separations:      16.171
# Separation priority:          6.916900416348e-05
# Minimum monomer separations:  12.891
# Cutoff priority:              2.839326685328e-06
# Nuclear repulsion energy:     375.6819259658921

memory 7 GB

molecule Dimer_0_164 {
  N            6.27981210      -4.25303372       0.19313865
  N            6.06870777      -2.28125697       1.80544317
  H            3.66871156      -5.64628941      -1.96684001
  H            0.69034521      -2.37545694      -0.42864236
  H            3.35917442       0.17650601       3.09265017
  H            7.35266782      -1.99461311       2.90680702
  C            3.77952586      -1.21508453       1.76858172
  C            2.38242998      -2.55505538       0.04607681
  C            4.01771468      -4.38410490      -0.88761863
--
  N            2.79813836      26.18878244       7.98741574
  N            2.91700062      28.22668947       6.45024202
  H            5.47130109      23.78787247       8.70544609
  H            8.36593765      26.23041121       5.95030859
  H            5.42951358      29.94346023       4.04567228
  H            1.45459240      29.03666653       6.06447669
  C            5.19983702      28.55686514       5.42119317
  C            6.68282945      26.62719292       6.31111564
  C            5.12152412      25.24202511       7.90281359
units = au
no_com
no_reorient
}

set {
  e_convergence 10
  d_convergence 10
  scf_type df
  mp2_type df
  cc_type df
  freeze_core true
}

energy('sapt0/aug-cc-pvdz')

--------------------------------------------------------------------------

  //              Dimer HF             //
    Molecular point group: c1
  Charge       = 0
  Multiplicity = 1
  Basis Set: AUG-CC-PVDZ
    Blend: AUG-CC-PVDZ
  Basis Set: (AUG-CC-PVDZ AUX)
    Blend: AUG-CC-PVDZ-JKFIT
  @DF-RHF Final Energy:  -449.52480985292152
    Total Energy =                       -449.5248098529215213
  //            Monomer A HF           //
    Molecular point group: c1
  Multiplicity = 1
  Basis Set: AUG-CC-PVDZ
    Blend: AUG-CC-PVDZ
  Basis Set: (AUG-CC-PVDZ AUX)
    Blend: AUG-CC-PVDZ-JKFIT
  @DF-RHF Final Energy:  -224.76233952566875
    Total Energy =                       -224.7623395256687502
  //            Monomer B HF           //
    Molecular point group: c1

    Geometry (in Bohr), charge = 0, multiplicity = 1:

       Center              X                  Y                   Z               Mass
    ------------   -----------------  -----------------  -----------------  -----------------
      Gh(N)           6.279812100000    -4.253033720000     0.193138650000    14.003074004430
      Gh(N)           6.068707770000    -2.281256970000     1.805443170000    14.003074004430
      Gh(H)           3.668711560000    -5.646289410000    -1.966840010000     1.007825032230
      Gh(H)           0.690345210000    -2.375456940000    -0.428642360000     1.007825032230
      Gh(H)           3.359174420000     0.176506010000     3.092650170000     1.007825032230
      Gh(H)           7.352667820000    -1.994613110000     2.906807020000     1.007825032230
      Gh(C)           3.779525860000    -1.215084530000     1.768581720000    12.000000000000
      Gh(C)           2.382429980000    -2.555055380000     0.046076810000    12.000000000000
      Gh(C)           4.017714680000    -4.384104900000    -0.887618630000    12.000000000000
         N            2.798138360000    26.188782440000     7.987415740000    14.003074004430
         N            2.917000620000    28.226689470000     6.450242020000    14.003074004430
         H            5.471301090000    23.787872470000     8.705446090000     1.007825032230
         H            8.365937650000    26.230411210000     5.950308590000     1.007825032230
         H            5.429513580000    29.943460230000     4.045672280000     1.007825032230
         H            1.454592400000    29.036666530000     6.064476690000     1.007825032230
         C            5.199837020000    28.556865140000     5.421193170000    12.000000000000
         C            6.682829450000    26.627192920000     6.311115640000    12.000000000000
         C            5.121524120000    25.242025110000     7.902813590000    12.000000000000

  Charge       = 0
  Multiplicity = 1
  Basis Set: AUG-CC-PVDZ
    Blend: AUG-CC-PVDZ
  Basis Set: (AUG-CC-PVDZ AUX)
    Blend: AUG-CC-PVDZ-JKFIT

    Orbital Energies [Eh]
    ---------------------

    Doubly Occupied:

       1A    -15.636233     2A    -15.592291     3A    -11.279903
       4A    -11.237759     5A    -11.209884     6A     -1.387001
       7A     -1.121894     8A     -1.066928     9A     -0.872759
      10A     -0.837039    11A     -0.757272    12A     -0.645745
      13A     -0.620828    14A     -0.609177    15A     -0.583905
      16A     -0.461413    17A     -0.370715    18A     -0.346055

  @DF-RHF Final Energy:  -224.76243506728025

   => Energetics <=

    Nuclear Repulsion Energy =            166.6286029023488027
    One-Electron Energy =                -633.5084736345379497
    Two-Electron Energy =                 242.1174356649088963
    Total Energy =                       -224.7624350672802507

  Dipole Moment: [D]
     X:     0.7394      Y:     1.4336      Z:    -1.7871     Total:     2.4074

    SAPT Results
  --------------------------------------------------------------------------------------------------------
    Electrostatics                 -0.03522731 [mEh]      -0.02210547 [kcal/mol]      -0.09248930 [kJ/mol]
      Elst10,r                     -0.03522731 [mEh]      -0.02210547 [kcal/mol]      -0.09248930 [kJ/mol]

    Exchange                        0.00000001 [mEh]       0.00000001 [kcal/mol]       0.00000003 [kJ/mol]
      Exch10                        0.00000001 [mEh]       0.00000001 [kcal/mol]       0.00000003 [kJ/mol]
      Exch10(S^2)                   0.00000001 [mEh]       0.00000001 [kcal/mol]       0.00000003 [kJ/mol]

    Induction                      -0.00003267 [mEh]      -0.00002050 [kcal/mol]      -0.00008578 [kJ/mol]
      Ind20,r                      -0.00012149 [mEh]      -0.00007624 [kcal/mol]      -0.00031898 [kJ/mol]
      Exch-Ind20,r                  0.00000002 [mEh]       0.00000001 [kcal/mol]       0.00000004 [kJ/mol]
      delta HF,r (2)                0.00008881 [mEh]       0.00005573 [kcal/mol]       0.00023316 [kJ/mol]

    Dispersion                     -0.00151811 [mEh]      -0.00095263 [kcal/mol]      -0.00398580 [kJ/mol]
      Disp20                       -0.00151811 [mEh]      -0.00095263 [kcal/mol]      -0.00398580 [kJ/mol]
      Exch-Disp20                   0.00000000 [mEh]       0.00000000 [kcal/mol]       0.00000000 [kJ/mol]
      Disp20 (SS)                  -0.00075906 [mEh]      -0.00047631 [kcal/mol]      -0.00199290 [kJ/mol]
      Disp20 (OS)                  -0.00075906 [mEh]      -0.00047631 [kcal/mol]      -0.00199290 [kJ/mol]
      Exch-Disp20 (SS)              0.00000000 [mEh]       0.00000000 [kcal/mol]       0.00000000 [kJ/mol]
      Exch-Disp20 (OS)              0.00000000 [mEh]       0.00000000 [kcal/mol]       0.00000000 [kJ/mol]

  Total HF                         -0.03525997 [mEh]      -0.02212597 [kcal/mol]      -0.09257505 [kJ/mol]
  Total SAPT0                      -0.03677808 [mEh]      -0.02307860 [kcal/mol]      -0.09656084 [kJ/mol]

  Special recipe for scaled SAPT0 (see Manual):
    Electrostatics sSAPT0          -0.03522731 [mEh]      -0.02210547 [kcal/mol]      -0.09248930 [kJ/mol]
    Exchange sSAPT0                 0.00000001 [mEh]       0.00000001 [kcal/mol]       0.00000003 [kJ/mol]
    Induction sSAPT0               -0.00003267 [mEh]      -0.00002050 [kcal/mol]      -0.00008578 [kJ/mol]
    Dispersion sSAPT0              -0.00151811 [mEh]      -0.00095263 [kcal/mol]      -0.00398580 [kJ/mol]
  Total sSAPT0                     -0.03677808 [mEh]      -0.02307860 [kcal/mol]      -0.09656084 [kJ/mol]
  --------------------------------------------------------------------------------------------------------

*** Psi4 exiting successfully. Buy a developer a beer!
