                               Psi4 1.4rc3

  ==> Input File <==

--------------------------------------------------------------------------
# PSI4 file produced by CrystaLattE

# Generated from:               pyrazole.xyz
# Psithon input for N-mer:      2mer-0+60
# Number of atoms per monomer:  [9, 9]
# Number of replicas:           1
# COM priority:                 9.862376577367e-05
# Minimum COM separations:      11.454
# Separation priority:          2.443155012262e-04
# Minimum monomer separations:  8.465
# Cutoff priority:              1.527336382083e-05
# Nuclear repulsion energy:     393.2323253727421

memory 7 GB

molecule Dimer_0_60 {
  N            6.27981210      -4.25303372       0.19313865
  N            6.06870777      -2.28125697       1.80544317
  H            3.66871156      -5.64628941      -1.96684001
  H            0.69034521      -2.37545694      -0.42864236
  H            3.35917442       0.17650601       3.09265017
  H            7.35266782      -1.99461311       2.90680702
  C            3.77952586      -1.21508453       1.76858172
  C            2.38242998      -2.55505538       0.04607681
  C            4.01771468      -4.38410490      -0.88761863
--
  N           -4.94029013      -2.29338878     -20.74045397
  N           -4.82142787      -4.33129582     -19.20328025
  H           -2.26712739       0.10752118     -21.45848432
  H            0.62750917      -2.33501756     -18.70334682
  H           -2.30891491      -6.04806657     -16.79871051
  H           -6.28383608      -5.14127288     -18.81751493
  C           -2.53859146      -4.66147149     -18.17423140
  C           -1.05559903      -2.73179927     -19.06415387
  C           -2.61690436      -1.34663146     -20.65585182
units = au
no_com
no_reorient
}

set {
  e_convergence 10
  d_convergence 10
  scf_type df
  mp2_type df
  cc_type df
  freeze_core true
}

energy('sapt0/aug-cc-pvdz')

--------------------------------------------------------------------------

  //              Dimer HF             //
    Molecular point group: c1
  Charge       = 0
  Multiplicity = 1
  Basis Set: AUG-CC-PVDZ
    Blend: AUG-CC-PVDZ
  Basis Set: (AUG-CC-PVDZ AUX)
    Blend: AUG-CC-PVDZ-JKFIT
  @DF-RHF Final Energy:  -449.52481010362749
    Total Energy =                       -449.5248101036274875
  //            Monomer A HF           //
    Molecular point group: c1
  Multiplicity = 1
  Basis Set: AUG-CC-PVDZ
    Blend: AUG-CC-PVDZ
  Basis Set: (AUG-CC-PVDZ AUX)
    Blend: AUG-CC-PVDZ-JKFIT
  @DF-RHF Final Energy:  -224.76234278752452
    Total Energy =                       -224.7623427875245170
  //            Monomer B HF           //
    Molecular point group: c1

    Geometry (in Bohr), charge = 0, multiplicity = 1:

       Center              X                  Y                   Z               Mass
    ------------   -----------------  -----------------  -----------------  -----------------
      Gh(N)           6.279812100000    -4.253033720000     0.193138650000    14.003074004430
      Gh(N)           6.068707770000    -2.281256970000     1.805443170000    14.003074004430
      Gh(H)           3.668711560000    -5.646289410000    -1.966840010000     1.007825032230
      Gh(H)           0.690345210000    -2.375456940000    -0.428642360000     1.007825032230
      Gh(H)           3.359174420000     0.176506010000     3.092650170000     1.007825032230
      Gh(H)           7.352667820000    -1.994613110000     2.906807020000     1.007825032230
      Gh(C)           3.779525860000    -1.215084530000     1.768581720000    12.000000000000
      Gh(C)           2.382429980000    -2.555055380000     0.046076810000    12.000000000000
      Gh(C)           4.017714680000    -4.384104900000    -0.887618630000    12.000000000000
         N           -4.940290130000    -2.293388780000   -20.740453970000    14.003074004430
         N           -4.821427870000    -4.331295820000   -19.203280250000    14.003074004430
         H           -2.267127390000     0.107521180000   -21.458484320000     1.007825032230
         H            0.627509170000    -2.335017560000   -18.703346820000     1.007825032230
         H           -2.308914910000    -6.048066570000   -16.798710510000     1.007825032230
         H           -6.283836080000    -5.141272880000   -18.817514930000     1.007825032230
         C           -2.538591460000    -4.661471490000   -18.174231400000    12.000000000000
         C           -1.055599030000    -2.731799270000   -19.064153870000    12.000000000000
         C           -2.616904360000    -1.346631460000   -20.655851820000    12.000000000000

  Charge       = 0
  Multiplicity = 1
  Basis Set: AUG-CC-PVDZ
    Blend: AUG-CC-PVDZ
  Basis Set: (AUG-CC-PVDZ AUX)
    Blend: AUG-CC-PVDZ-JKFIT

    Orbital Energies [Eh]
    ---------------------

    Doubly Occupied:

       1A    -15.636233     2A    -15.592291     3A    -11.279903
       4A    -11.237759     5A    -11.209884     6A     -1.387001
       7A     -1.121894     8A     -1.066928     9A     -0.872759
      10A     -0.837039    11A     -0.757272    12A     -0.645745
      13A     -0.620828    14A     -0.609177    15A     -0.583905
      16A     -0.461414    17A     -0.370715    18A     -0.346055

  @DF-RHF Final Energy:  -224.76243871459309

   => Energetics <=

    Nuclear Repulsion Energy =            166.6286026982256203
    One-Electron Energy =                -633.5084772607576724
    Two-Electron Energy =                 242.1174358479389639
    Total Energy =                       -224.7624387145930882

  Dipole Moment: [D]
     X:     0.7395      Y:    -1.4335      Z:     1.7871     Total:     2.4074

    SAPT Results
  --------------------------------------------------------------------------------------------------------
    Electrostatics                 -0.02815399 [mEh]      -0.01766689 [kcal/mol]      -0.07391828 [kJ/mol]
      Elst10,r                     -0.02815399 [mEh]      -0.01766689 [kcal/mol]      -0.07391828 [kJ/mol]

    Exchange                        0.00000452 [mEh]       0.00000284 [kcal/mol]       0.00001188 [kJ/mol]
      Exch10                        0.00000452 [mEh]       0.00000284 [kcal/mol]       0.00001188 [kJ/mol]
      Exch10(S^2)                   0.00000452 [mEh]       0.00000284 [kcal/mol]       0.00001188 [kJ/mol]

    Induction                      -0.00045205 [mEh]      -0.00028366 [kcal/mol]      -0.00118685 [kJ/mol]
      Ind20,r                      -0.00062437 [mEh]      -0.00039180 [kcal/mol]      -0.00163928 [kJ/mol]
      Exch-Ind20,r                  0.00000733 [mEh]       0.00000460 [kcal/mol]       0.00001925 [kJ/mol]
      delta HF,r (2)                0.00016499 [mEh]       0.00010353 [kcal/mol]       0.00043318 [kJ/mol]

    Dispersion                     -0.01340639 [mEh]      -0.00841264 [kcal/mol]      -0.03519847 [kJ/mol]
      Disp20                       -0.01340679 [mEh]      -0.00841289 [kcal/mol]      -0.03519953 [kJ/mol]
      Exch-Disp20                   0.00000040 [mEh]       0.00000025 [kcal/mol]       0.00000106 [kJ/mol]
      Disp20 (SS)                  -0.00670340 [mEh]      -0.00420644 [kcal/mol]      -0.01759976 [kJ/mol]
      Disp20 (OS)                  -0.00670340 [mEh]      -0.00420644 [kcal/mol]      -0.01759976 [kJ/mol]
      Exch-Disp20 (SS)              0.00000032 [mEh]       0.00000020 [kcal/mol]       0.00000085 [kJ/mol]
      Exch-Disp20 (OS)              0.00000008 [mEh]       0.00000005 [kcal/mol]       0.00000021 [kJ/mol]

  Total HF                         -0.02860151 [mEh]      -0.01794772 [kcal/mol]      -0.07509325 [kJ/mol]
  Total SAPT0                      -0.04200790 [mEh]      -0.02636035 [kcal/mol]      -0.11029172 [kJ/mol]

  Special recipe for scaled SAPT0 (see Manual):
    Electrostatics sSAPT0          -0.02815399 [mEh]      -0.01766689 [kcal/mol]      -0.07391828 [kJ/mol]
    Exchange sSAPT0                 0.00000452 [mEh]       0.00000284 [kcal/mol]       0.00001188 [kJ/mol]
    Induction sSAPT0               -0.00045205 [mEh]      -0.00028366 [kcal/mol]      -0.00118685 [kJ/mol]
    Dispersion sSAPT0              -0.01340639 [mEh]      -0.00841264 [kcal/mol]      -0.03519847 [kJ/mol]
  Total sSAPT0                     -0.04200790 [mEh]      -0.02636035 [kcal/mol]      -0.11029172 [kJ/mol]
  --------------------------------------------------------------------------------------------------------

*** Psi4 exiting successfully. Buy a developer a beer!
