                               Psi4 1.4rc3

  ==> Input File <==

--------------------------------------------------------------------------
# PSI4 file produced by CrystaLattE

# Generated from:               pyrazole.xyz
# Psithon input for N-mer:      2mer-0+377
# Number of atoms per monomer:  [9, 9]
# Number of replicas:           1
# COM priority:                 1.724910084278e-05
# Minimum COM separations:      20.481
# Separation priority:          2.675333408550e-05
# Minimum monomer separations:  17.693
# Cutoff priority:              8.001484172644e-07
# Nuclear repulsion energy:     366.7429854464907

memory 7 GB

molecule Dimer_0_377 {
  N            6.27981210      -4.25303372       0.19313865
  N            6.06870777      -2.28125697       1.80544317
  H            3.66871156      -5.64628941      -1.96684001
  H            0.69034521      -2.37545694      -0.42864236
  H            3.35917442       0.17650601       3.09265017
  H            7.35266782      -1.99461311       2.90680702
  C            3.77952586      -1.21508453       1.76858172
  C            2.38242998      -2.55505538       0.04607681
  C            4.01771468      -4.38410490      -0.88761863
--
  N           18.27499532      33.38841992       1.58785821
  N           18.39385758      31.35051288       0.05068450
  H           20.94815806      35.78932988       2.30588857
  H           23.84279462      33.34679114      -0.44924894
  H           20.90637054      29.63374213      -2.35388525
  H           16.93144937      30.54053582      -0.33508083
  C           20.67669399      31.02033721      -0.97836435
  C           22.15968642      32.95000943      -0.08844188
  C           20.59838109      34.33517724       1.50325606
units = au
no_com
no_reorient
}

set {
  e_convergence 10
  d_convergence 10
  scf_type df
  mp2_type df
  cc_type df
  freeze_core true
}

energy('sapt0/aug-cc-pvdz')

--------------------------------------------------------------------------

  //              Dimer HF             //
    Molecular point group: c1
  Charge       = 0
  Multiplicity = 1
  Basis Set: AUG-CC-PVDZ
    Blend: AUG-CC-PVDZ
  Basis Set: (AUG-CC-PVDZ AUX)
    Blend: AUG-CC-PVDZ-JKFIT
  @DF-RHF Final Energy:  -449.52478297116613
    Total Energy =                       -449.5247829711661325
  //            Monomer A HF           //
    Molecular point group: c1
  Multiplicity = 1
  Basis Set: AUG-CC-PVDZ
    Blend: AUG-CC-PVDZ
  Basis Set: (AUG-CC-PVDZ AUX)
    Blend: AUG-CC-PVDZ-JKFIT
  @DF-RHF Final Energy:  -224.76233952222015
    Total Energy =                       -224.7623395222201452
  //            Monomer B HF           //
    Molecular point group: c1

    Geometry (in Bohr), charge = 0, multiplicity = 1:

       Center              X                  Y                   Z               Mass
    ------------   -----------------  -----------------  -----------------  -----------------
      Gh(N)           6.279812100000    -4.253033720000     0.193138650000    14.003074004430
      Gh(N)           6.068707770000    -2.281256970000     1.805443170000    14.003074004430
      Gh(H)           3.668711560000    -5.646289410000    -1.966840010000     1.007825032230
      Gh(H)           0.690345210000    -2.375456940000    -0.428642360000     1.007825032230
      Gh(H)           3.359174420000     0.176506010000     3.092650170000     1.007825032230
      Gh(H)           7.352667820000    -1.994613110000     2.906807020000     1.007825032230
      Gh(C)           3.779525860000    -1.215084530000     1.768581720000    12.000000000000
      Gh(C)           2.382429980000    -2.555055380000     0.046076810000    12.000000000000
      Gh(C)           4.017714680000    -4.384104900000    -0.887618630000    12.000000000000
         N           18.274995320000    33.388419920000     1.587858210000    14.003074004430
         N           18.393857580000    31.350512880000     0.050684500000    14.003074004430
         H           20.948158060000    35.789329880000     2.305888570000     1.007825032230
         H           23.842794620000    33.346791140000    -0.449248940000     1.007825032230
         H           20.906370540000    29.633742130000    -2.353885250000     1.007825032230
         H           16.931449370000    30.540535820000    -0.335080830000     1.007825032230
         C           20.676693990000    31.020337210000    -0.978364350000    12.000000000000
         C           22.159686420000    32.950009430000    -0.088441880000    12.000000000000
         C           20.598381090000    34.335177240000     1.503256060000    12.000000000000

  Charge       = 0
  Multiplicity = 1
  Basis Set: AUG-CC-PVDZ
    Blend: AUG-CC-PVDZ
  Basis Set: (AUG-CC-PVDZ AUX)
    Blend: AUG-CC-PVDZ-JKFIT

    Orbital Energies [Eh]
    ---------------------

    Doubly Occupied:

       1A    -15.636233     2A    -15.592291     3A    -11.279903
       4A    -11.237759     5A    -11.209884     6A     -1.387001
       7A     -1.121894     8A     -1.066928     9A     -0.872759
      10A     -0.837039    11A     -0.757272    12A     -0.645745
      13A     -0.620828    14A     -0.609177    15A     -0.583905
      16A     -0.461413    17A     -0.370715    18A     -0.346055

  @DF-RHF Final Energy:  -224.76243506222525

   => Energetics <=

    Nuclear Repulsion Energy =            166.6286027853672067
    One-Electron Energy =                -633.5084733595251691
    Two-Electron Energy =                 242.1174355119327117
    Total Energy =                       -224.7624350622252507

  Dipole Moment: [D]
     X:     0.7394      Y:    -1.4336      Z:    -1.7871     Total:     2.4074

    SAPT Results
  --------------------------------------------------------------------------------------------------------
    Electrostatics                 -0.00840819 [mEh]      -0.00527622 [kcal/mol]      -0.02207571 [kJ/mol]
      Elst10,r                     -0.00840819 [mEh]      -0.00527622 [kcal/mol]      -0.02207571 [kJ/mol]

    Exchange                        0.00000000 [mEh]       0.00000000 [kcal/mol]       0.00000000 [kJ/mol]
      Exch10                        0.00000000 [mEh]       0.00000000 [kcal/mol]       0.00000000 [kJ/mol]
      Exch10(S^2)                   0.00000000 [mEh]       0.00000000 [kcal/mol]       0.00000000 [kJ/mol]

    Induction                       0.00002147 [mEh]       0.00001347 [kcal/mol]       0.00005638 [kJ/mol]
      Ind20,r                      -0.00002263 [mEh]      -0.00001420 [kcal/mol]      -0.00005941 [kJ/mol]
      Exch-Ind20,r                  0.00000000 [mEh]       0.00000000 [kcal/mol]       0.00000000 [kJ/mol]
      delta HF,r (2)                0.00004410 [mEh]       0.00002767 [kcal/mol]       0.00011579 [kJ/mol]

    Dispersion                     -0.00034314 [mEh]      -0.00021532 [kcal/mol]      -0.00090090 [kJ/mol]
      Disp20                       -0.00034314 [mEh]      -0.00021532 [kcal/mol]      -0.00090090 [kJ/mol]
      Exch-Disp20                   0.00000000 [mEh]       0.00000000 [kcal/mol]       0.00000000 [kJ/mol]
      Disp20 (SS)                  -0.00017157 [mEh]      -0.00010766 [kcal/mol]      -0.00045045 [kJ/mol]
      Disp20 (OS)                  -0.00017157 [mEh]      -0.00010766 [kcal/mol]      -0.00045045 [kJ/mol]
      Exch-Disp20 (SS)              0.00000000 [mEh]       0.00000000 [kcal/mol]       0.00000000 [kJ/mol]
      Exch-Disp20 (OS)              0.00000000 [mEh]       0.00000000 [kcal/mol]       0.00000000 [kJ/mol]

  Total HF                         -0.00838672 [mEh]      -0.00526275 [kcal/mol]      -0.02201933 [kJ/mol]
  Total SAPT0                      -0.00872986 [mEh]      -0.00547807 [kcal/mol]      -0.02292023 [kJ/mol]

  Special recipe for scaled SAPT0 (see Manual):
    Electrostatics sSAPT0          -0.00840819 [mEh]      -0.00527622 [kcal/mol]      -0.02207571 [kJ/mol]
    Exchange sSAPT0                 0.00000000 [mEh]       0.00000000 [kcal/mol]       0.00000000 [kJ/mol]
    Induction sSAPT0                0.00002147 [mEh]       0.00001347 [kcal/mol]       0.00005638 [kJ/mol]
    Dispersion sSAPT0              -0.00034314 [mEh]      -0.00021532 [kcal/mol]      -0.00090090 [kJ/mol]
  Total sSAPT0                     -0.00872986 [mEh]      -0.00547807 [kcal/mol]      -0.02292023 [kJ/mol]
  --------------------------------------------------------------------------------------------------------

*** Psi4 exiting successfully. Buy a developer a beer!
