                               Psi4 1.4rc3

  ==> Input File <==

--------------------------------------------------------------------------
# PSI4 file produced by CrystaLattE

# Generated from:               pyrazole.xyz
# Psithon input for N-mer:      2mer-0+313
# Number of atoms per monomer:  [9, 9]
# Number of replicas:           2
# COM priority:                 1.791323007902e-05
# Minimum COM separations:      20.224
# Separation priority:          2.539476735465e-05
# Minimum monomer separations:  18.003
# Cutoff priority:              7.464355551011e-07
# Nuclear repulsion energy:     367.10892590866257

memory 7 GB

molecule Dimer_0_313 {
  N            6.27981210      -4.25303372       0.19313865
  N            6.06870777      -2.28125697       1.80544317
  H            3.66871156      -5.64628941      -1.96684001
  H            0.69034521      -2.37545694      -0.42864236
  H            3.35917442       0.17650601       3.09265017
  H            7.35266782      -1.99461311       2.90680702
  C            3.77952586      -1.21508453       1.76858172
  C            2.38242998      -2.55505538       0.04607681
  C            4.01771468      -4.38410490      -0.88761863
--
  N           -9.19704487      19.53483875     -25.40509145
  N           -9.40814920      21.50661550     -23.79278693
  H          -11.80814541      18.14158306     -27.56507010
  H          -14.78651176      21.41241552     -26.02687246
  H          -12.11768255      23.96437848     -22.50557993
  H           -8.12418914      21.79325936     -22.69142308
  C          -11.69733111      22.57278794     -23.82964838
  C          -13.09442699      21.23281709     -25.55215328
  C          -11.45914228      19.40376757     -26.48584872
units = au
no_com
no_reorient
}

set {
  e_convergence 10
  d_convergence 10
  scf_type df
  mp2_type df
  cc_type df
  freeze_core true
}

energy('sapt0/aug-cc-pvdz')

--------------------------------------------------------------------------

  //              Dimer HF             //
    Molecular point group: c1
  Charge       = 0
  Multiplicity = 1
  Basis Set: AUG-CC-PVDZ
    Blend: AUG-CC-PVDZ
  Basis Set: (AUG-CC-PVDZ AUX)
    Blend: AUG-CC-PVDZ-JKFIT
  @DF-RHF Final Energy:  -449.52466439102682
    Total Energy =                       -449.5246643910268176
  //            Monomer A HF           //
    Molecular point group: c1
  Multiplicity = 1
  Basis Set: AUG-CC-PVDZ
    Blend: AUG-CC-PVDZ
  Basis Set: (AUG-CC-PVDZ AUX)
    Blend: AUG-CC-PVDZ-JKFIT
  @DF-RHF Final Energy:  -224.76233952141087
    Total Energy =                       -224.7623395214108655
  //            Monomer B HF           //
    Molecular point group: c1

    Geometry (in Bohr), charge = 0, multiplicity = 1:

       Center              X                  Y                   Z               Mass
    ------------   -----------------  -----------------  -----------------  -----------------
      Gh(N)           6.279812100000    -4.253033720000     0.193138650000    14.003074004430
      Gh(N)           6.068707770000    -2.281256970000     1.805443170000    14.003074004430
      Gh(H)           3.668711560000    -5.646289410000    -1.966840010000     1.007825032230
      Gh(H)           0.690345210000    -2.375456940000    -0.428642360000     1.007825032230
      Gh(H)           3.359174420000     0.176506010000     3.092650170000     1.007825032230
      Gh(H)           7.352667820000    -1.994613110000     2.906807020000     1.007825032230
      Gh(C)           3.779525860000    -1.215084530000     1.768581720000    12.000000000000
      Gh(C)           2.382429980000    -2.555055380000     0.046076810000    12.000000000000
      Gh(C)           4.017714680000    -4.384104900000    -0.887618630000    12.000000000000
         N           -9.197044870000    19.534838750000   -25.405091450000    14.003074004430
         N           -9.408149200000    21.506615500000   -23.792786930000    14.003074004430
         H          -11.808145410000    18.141583060000   -27.565070100000     1.007825032230
         H          -14.786511760000    21.412415520000   -26.026872460000     1.007825032230
         H          -12.117682550000    23.964378480000   -22.505579930000     1.007825032230
         H           -8.124189140000    21.793259360000   -22.691423080000     1.007825032230
         C          -11.697331110000    22.572787940000   -23.829648380000    12.000000000000
         C          -13.094426990000    21.232817090000   -25.552153280000    12.000000000000
         C          -11.459142280000    19.403767570000   -26.485848720000    12.000000000000

  Charge       = 0
  Multiplicity = 1
  Basis Set: AUG-CC-PVDZ
    Blend: AUG-CC-PVDZ
  Basis Set: (AUG-CC-PVDZ AUX)
    Blend: AUG-CC-PVDZ-JKFIT

    Orbital Energies [Eh]
    ---------------------

    Doubly Occupied:

       1A    -15.636223     2A    -15.592313     3A    -11.279894
       4A    -11.237784     5A    -11.209891     6A     -1.386922
       7A     -1.121901     8A     -1.066898     9A     -0.872768
      10A     -0.837061    11A     -0.757292    12A     -0.645746
      13A     -0.620834    14A     -0.609140    15A     -0.583920
      16A     -0.461404    17A     -0.370721    18A     -0.346048

  @DF-RHF Final Energy:  -224.76233952343188

   => Energetics <=

    Nuclear Repulsion Energy =            166.6240565750283054
    One-Electron Energy =                -633.4992736443390413
    Two-Electron Energy =                 242.1128775458788596
    Total Energy =                       -224.7623395234318764

  Dipole Moment: [D]
     X:    -1.0235      Y:     1.6055      Z:     1.4733     Total:     2.4075

    SAPT Results
  --------------------------------------------------------------------------------------------------------
    Electrostatics                  0.01461195 [mEh]       0.00916914 [kcal/mol]       0.03836367 [kJ/mol]
      Elst10,r                      0.01461195 [mEh]       0.00916914 [kcal/mol]       0.03836367 [kJ/mol]

    Exchange                        0.00000000 [mEh]       0.00000000 [kcal/mol]       0.00000000 [kJ/mol]
      Exch10                        0.00000000 [mEh]       0.00000000 [kcal/mol]       0.00000000 [kJ/mol]
      Exch10(S^2)                   0.00000000 [mEh]       0.00000000 [kcal/mol]       0.00000000 [kJ/mol]

    Induction                       0.00004187 [mEh]       0.00002627 [kcal/mol]       0.00010992 [kJ/mol]
      Ind20,r                      -0.00001621 [mEh]      -0.00001017 [kcal/mol]      -0.00004255 [kJ/mol]
      Exch-Ind20,r                  0.00000000 [mEh]       0.00000000 [kcal/mol]       0.00000000 [kJ/mol]
      delta HF,r (2)                0.00005807 [mEh]       0.00003644 [kcal/mol]       0.00015247 [kJ/mol]

    Dispersion                     -0.00034227 [mEh]      -0.00021478 [kcal/mol]      -0.00089863 [kJ/mol]
      Disp20                       -0.00034227 [mEh]      -0.00021478 [kcal/mol]      -0.00089863 [kJ/mol]
      Exch-Disp20                   0.00000000 [mEh]       0.00000000 [kcal/mol]       0.00000000 [kJ/mol]
      Disp20 (SS)                  -0.00017113 [mEh]      -0.00010739 [kcal/mol]      -0.00044931 [kJ/mol]
      Disp20 (OS)                  -0.00017113 [mEh]      -0.00010739 [kcal/mol]      -0.00044931 [kJ/mol]
      Exch-Disp20 (SS)              0.00000000 [mEh]       0.00000000 [kcal/mol]       0.00000000 [kJ/mol]
      Exch-Disp20 (OS)              0.00000000 [mEh]       0.00000000 [kcal/mol]       0.00000000 [kJ/mol]

  Total HF                          0.01465382 [mEh]       0.00919541 [kcal/mol]       0.03847359 [kJ/mol]
  Total SAPT0                       0.01431155 [mEh]       0.00898063 [kcal/mol]       0.03757496 [kJ/mol]

  Special recipe for scaled SAPT0 (see Manual):
    Electrostatics sSAPT0           0.01461195 [mEh]       0.00916914 [kcal/mol]       0.03836367 [kJ/mol]
    Exchange sSAPT0                 0.00000000 [mEh]       0.00000000 [kcal/mol]       0.00000000 [kJ/mol]
    Induction sSAPT0                0.00004187 [mEh]       0.00002627 [kcal/mol]       0.00010992 [kJ/mol]
    Dispersion sSAPT0              -0.00034227 [mEh]      -0.00021478 [kcal/mol]      -0.00089863 [kJ/mol]
  Total sSAPT0                      0.01431155 [mEh]       0.00898063 [kcal/mol]       0.03757496 [kJ/mol]
  --------------------------------------------------------------------------------------------------------

*** Psi4 exiting successfully. Buy a developer a beer!
