                               Psi4 1.4rc3

  ==> Input File <==

--------------------------------------------------------------------------
# PSI4 file produced by CrystaLattE

# Generated from:               pyrazole.xyz
# Psithon input for N-mer:      2mer-0+513
# Number of atoms per monomer:  [9, 9]
# Number of replicas:           2
# COM priority:                 1.154728051773e-05
# Minimum COM separations:      23.412
# Separation priority:          1.857435869358e-05
# Minimum monomer separations:  19.982
# Cutoff priority:              4.919093800699e-07
# Nuclear repulsion energy:     362.5688741232214

memory 7 GB

molecule Dimer_0_513 {
  N            6.27981210      -4.25303372       0.19313865
  N            6.06870777      -2.28125697       1.80544317
  H            3.66871156      -5.64628941      -1.96684001
  H            0.69034521      -2.37545694      -0.42864236
  H            3.35917442       0.17650601       3.09265017
  H            7.35266782      -1.99461311       2.90680702
  C            3.77952586      -1.21508453       1.76858172
  C            2.38242998      -2.55505538       0.04607681
  C            4.01771468      -4.38410490      -0.88761863
--
  N          -16.93547335       4.36055490      38.25028331
  N          -17.14657768       2.38877815      36.63797879
  H          -19.54657389       5.75381059      40.41026197
  H          -22.52494025       2.48297813      38.87206432
  H          -19.85611103      -0.06898483      35.35077179
  H          -15.86261763       2.10213429      35.53661494
  C          -19.43575960       1.32260571      36.67484024
  C          -20.83285547       2.66257657      38.39734514
  C          -19.19757077       4.49162608      39.33104059
units = au
no_com
no_reorient
}

set {
  e_convergence 10
  d_convergence 10
  scf_type df
  mp2_type df
  cc_type df
  freeze_core true
}

energy('sapt0/aug-cc-pvdz')

--------------------------------------------------------------------------

  //              Dimer HF             //
    Molecular point group: c1
  Charge       = 0
  Multiplicity = 1
  Basis Set: AUG-CC-PVDZ
    Blend: AUG-CC-PVDZ
  Basis Set: (AUG-CC-PVDZ AUX)
    Blend: AUG-CC-PVDZ-JKFIT
  @DF-RHF Final Energy:  -449.52467639312761
    Total Energy =                       -449.5246763931276064
  //            Monomer A HF           //
    Molecular point group: c1
  Multiplicity = 1
  Basis Set: AUG-CC-PVDZ
    Blend: AUG-CC-PVDZ
  Basis Set: (AUG-CC-PVDZ AUX)
    Blend: AUG-CC-PVDZ-JKFIT
  @DF-RHF Final Energy:  -224.76233952134228
    Total Energy =                       -224.7623395213422839
  //            Monomer B HF           //
    Molecular point group: c1

    Geometry (in Bohr), charge = 0, multiplicity = 1:

       Center              X                  Y                   Z               Mass
    ------------   -----------------  -----------------  -----------------  -----------------
      Gh(N)           6.279812100000    -4.253033720000     0.193138650000    14.003074004430
      Gh(N)           6.068707770000    -2.281256970000     1.805443170000    14.003074004430
      Gh(H)           3.668711560000    -5.646289410000    -1.966840010000     1.007825032230
      Gh(H)           0.690345210000    -2.375456940000    -0.428642360000     1.007825032230
      Gh(H)           3.359174420000     0.176506010000     3.092650170000     1.007825032230
      Gh(H)           7.352667820000    -1.994613110000     2.906807020000     1.007825032230
      Gh(C)           3.779525860000    -1.215084530000     1.768581720000    12.000000000000
      Gh(C)           2.382429980000    -2.555055380000     0.046076810000    12.000000000000
      Gh(C)           4.017714680000    -4.384104900000    -0.887618630000    12.000000000000
         N          -16.935473350000     4.360554900000    38.250283310000    14.003074004430
         N          -17.146577680000     2.388778150000    36.637978790000    14.003074004430
         H          -19.546573890000     5.753810590000    40.410261970000     1.007825032230
         H          -22.524940250000     2.482978130000    38.872064320000     1.007825032230
         H          -19.856111030000    -0.068984830000    35.350771790000     1.007825032230
         H          -15.862617630000     2.102134290000    35.536614940000     1.007825032230
         C          -19.435759600000     1.322605710000    36.674840240000    12.000000000000
         C          -20.832855470000     2.662576570000    38.397345140000    12.000000000000
         C          -19.197570770000     4.491626080000    39.331040590000    12.000000000000

  Charge       = 0
  Multiplicity = 1
  Basis Set: AUG-CC-PVDZ
    Blend: AUG-CC-PVDZ
  Basis Set: (AUG-CC-PVDZ AUX)
    Blend: AUG-CC-PVDZ-JKFIT

    Orbital Energies [Eh]
    ---------------------

    Doubly Occupied:

       1A    -15.636223     2A    -15.592313     3A    -11.279894
       4A    -11.237784     5A    -11.209891     6A     -1.386922
       7A     -1.121901     8A     -1.066898     9A     -0.872768
      10A     -0.837061    11A     -0.757292    12A     -0.645746
      13A     -0.620834    14A     -0.609140    15A     -0.583920
      16A     -0.461404    17A     -0.370721    18A     -0.346048

  @DF-RHF Final Energy:  -224.76233952326976

   => Energetics <=

    Nuclear Repulsion Energy =            166.6240564213030666
    One-Electron Energy =                -633.4992733383643326
    Two-Electron Energy =                 242.1128773937915071
    Total Energy =                       -224.7623395232697590

  Dipole Moment: [D]
     X:    -1.0235      Y:    -1.6055      Z:    -1.4733     Total:     2.4075

    SAPT Results
  --------------------------------------------------------------------------------------------------------
    Electrostatics                  0.00262496 [mEh]       0.00164719 [kcal/mol]       0.00689183 [kJ/mol]
      Elst10,r                      0.00262496 [mEh]       0.00164719 [kcal/mol]       0.00689183 [kJ/mol]

    Exchange                        0.00000000 [mEh]       0.00000000 [kcal/mol]       0.00000000 [kJ/mol]
      Exch10                        0.00000000 [mEh]       0.00000000 [kcal/mol]       0.00000000 [kJ/mol]
      Exch10(S^2)                   0.00000000 [mEh]       0.00000000 [kcal/mol]       0.00000000 [kJ/mol]

    Induction                       0.00002652 [mEh]       0.00001664 [kcal/mol]       0.00006964 [kJ/mol]
      Ind20,r                      -0.00001277 [mEh]      -0.00000802 [kcal/mol]      -0.00003354 [kJ/mol]
      Exch-Ind20,r                  0.00000000 [mEh]       0.00000000 [kcal/mol]       0.00000000 [kJ/mol]
      delta HF,r (2)                0.00003930 [mEh]       0.00002466 [kcal/mol]       0.00010318 [kJ/mol]

    Dispersion                     -0.00015522 [mEh]      -0.00009740 [kcal/mol]      -0.00040754 [kJ/mol]
      Disp20                       -0.00015522 [mEh]      -0.00009740 [kcal/mol]      -0.00040754 [kJ/mol]
      Exch-Disp20                   0.00000000 [mEh]       0.00000000 [kcal/mol]       0.00000000 [kJ/mol]
      Disp20 (SS)                  -0.00007761 [mEh]      -0.00004870 [kcal/mol]      -0.00020377 [kJ/mol]
      Disp20 (OS)                  -0.00007761 [mEh]      -0.00004870 [kcal/mol]      -0.00020377 [kJ/mol]
      Exch-Disp20 (SS)              0.00000000 [mEh]       0.00000000 [kcal/mol]       0.00000000 [kJ/mol]
      Exch-Disp20 (OS)              0.00000000 [mEh]       0.00000000 [kcal/mol]       0.00000000 [kJ/mol]

  Total HF                          0.00265148 [mEh]       0.00166383 [kcal/mol]       0.00696147 [kJ/mol]
  Total SAPT0                       0.00249626 [mEh]       0.00156643 [kcal/mol]       0.00655393 [kJ/mol]

  Special recipe for scaled SAPT0 (see Manual):
    Electrostatics sSAPT0           0.00262496 [mEh]       0.00164719 [kcal/mol]       0.00689183 [kJ/mol]
    Exchange sSAPT0                 0.00000000 [mEh]       0.00000000 [kcal/mol]       0.00000000 [kJ/mol]
    Induction sSAPT0                0.00002652 [mEh]       0.00001664 [kcal/mol]       0.00006964 [kJ/mol]
    Dispersion sSAPT0              -0.00015522 [mEh]      -0.00009740 [kcal/mol]      -0.00040754 [kJ/mol]
  Total sSAPT0                      0.00249626 [mEh]       0.00156643 [kcal/mol]       0.00655393 [kJ/mol]
  --------------------------------------------------------------------------------------------------------

*** Psi4 exiting successfully. Buy a developer a beer!
