                               Psi4 1.4rc3

  ==> Input File <==

--------------------------------------------------------------------------
# PSI4 file produced by CrystaLattE

# Generated from:               pyrazole.xyz
# Psithon input for N-mer:      2mer-0+64
# Number of atoms per monomer:  [9, 9]
# Number of replicas:           2
# COM priority:                 7.429048533631e-05
# Minimum COM separations:      12.588
# Separation priority:          1.537486351595e-04
# Minimum monomer separations:  9.878
# Cutoff priority:              8.236607271127e-06
# Nuclear repulsion energy:     387.67008723924937

memory 7 GB

molecule Dimer_0_64 {
  N            6.27981210      -4.25303372       0.19313865
  N            6.06870777      -2.28125697       1.80544317
  H            3.66871156      -5.64628941      -1.96684001
  H            0.69034521      -2.37545694      -0.42864236
  H            3.35917442       0.17650601       3.09265017
  H            7.35266782      -1.99461311       2.90680702
  C            3.77952586      -1.21508453       1.76858172
  C            2.38242998      -2.55505538       0.04607681
  C            4.01771468      -4.38410490      -0.88761863
--
  N            6.27981210      19.53483875       0.19313865
  N            6.06870777      21.50661550       1.80544317
  H            3.66871156      18.14158306      -1.96684001
  H            0.69034521      21.41241552      -0.42864236
  H            3.35917442      23.96437848       3.09265017
  H            7.35266782      21.79325936       2.90680702
  C            3.77952586      22.57278794       1.76858172
  C            2.38242998      21.23281709       0.04607681
  C            4.01771468      19.40376757      -0.88761863
units = au
no_com
no_reorient
}

set {
  e_convergence 10
  d_convergence 10
  scf_type df
  mp2_type df
  cc_type df
  freeze_core true
}

energy('sapt0/aug-cc-pvdz')

--------------------------------------------------------------------------

  //              Dimer HF             //
    Molecular point group: c1
  Charge       = 0
  Multiplicity = 1
  Basis Set: AUG-CC-PVDZ
    Blend: AUG-CC-PVDZ
  Basis Set: (AUG-CC-PVDZ AUX)
    Blend: AUG-CC-PVDZ-JKFIT
  @DF-RHF Final Energy:  -449.52470781539603
    Total Energy =                       -449.5247078153960274
  //            Monomer A HF           //
    Molecular point group: c1
  Multiplicity = 1
  Basis Set: AUG-CC-PVDZ
    Blend: AUG-CC-PVDZ
  Basis Set: (AUG-CC-PVDZ AUX)
    Blend: AUG-CC-PVDZ-JKFIT
  @DF-RHF Final Energy:  -224.76234006069635
    Total Energy =                       -224.7623400606963457
  //            Monomer B HF           //
    Molecular point group: c1

    Geometry (in Bohr), charge = 0, multiplicity = 1:

       Center              X                  Y                   Z               Mass
    ------------   -----------------  -----------------  -----------------  -----------------
      Gh(N)           6.279812100000    -4.253033720000     0.193138650000    14.003074004430
      Gh(N)           6.068707770000    -2.281256970000     1.805443170000    14.003074004430
      Gh(H)           3.668711560000    -5.646289410000    -1.966840010000     1.007825032230
      Gh(H)           0.690345210000    -2.375456940000    -0.428642360000     1.007825032230
      Gh(H)           3.359174420000     0.176506010000     3.092650170000     1.007825032230
      Gh(H)           7.352667820000    -1.994613110000     2.906807020000     1.007825032230
      Gh(C)           3.779525860000    -1.215084530000     1.768581720000    12.000000000000
      Gh(C)           2.382429980000    -2.555055380000     0.046076810000    12.000000000000
      Gh(C)           4.017714680000    -4.384104900000    -0.887618630000    12.000000000000
         N            6.279812100000    19.534838750000     0.193138650000    14.003074004430
         N            6.068707770000    21.506615500000     1.805443170000    14.003074004430
         H            3.668711560000    18.141583060000    -1.966840010000     1.007825032230
         H            0.690345210000    21.412415520000    -0.428642360000     1.007825032230
         H            3.359174420000    23.964378480000     3.092650170000     1.007825032230
         H            7.352667820000    21.793259360000     2.906807020000     1.007825032230
         C            3.779525860000    22.572787940000     1.768581720000    12.000000000000
         C            2.382429980000    21.232817090000     0.046076810000    12.000000000000
         C            4.017714680000    19.403767570000    -0.887618630000    12.000000000000

  Charge       = 0
  Multiplicity = 1
  Basis Set: AUG-CC-PVDZ
    Blend: AUG-CC-PVDZ
  Basis Set: (AUG-CC-PVDZ AUX)
    Blend: AUG-CC-PVDZ-JKFIT

    Orbital Energies [Eh]
    ---------------------

    Doubly Occupied:

       1A    -15.636223     2A    -15.592313     3A    -11.279894
       4A    -11.237783     5A    -11.209891     6A     -1.386922
       7A     -1.121901     8A     -1.066898     9A     -0.872768
      10A     -0.837061    11A     -0.757292    12A     -0.645746
      13A     -0.620834    14A     -0.609140    15A     -0.583920
      16A     -0.461404    17A     -0.370721    18A     -0.346047

  @DF-RHF Final Energy:  -224.76234025954130

   => Energetics <=

    Nuclear Repulsion Energy =            166.6240564538892386
    One-Electron Energy =                -633.4992786314527393
    Two-Electron Energy =                 242.1128819180221967
    Total Energy =                       -224.7623402595413040

  Dipole Moment: [D]
     X:    -1.0236      Y:     1.6055      Z:     1.4733     Total:     2.4075

    SAPT Results
  --------------------------------------------------------------------------------------------------------
    Electrostatics                 -0.02718834 [mEh]      -0.01706094 [kcal/mol]      -0.07138299 [kJ/mol]
      Elst10,r                     -0.02718834 [mEh]      -0.01706094 [kcal/mol]      -0.07138299 [kJ/mol]

    Exchange                        0.00000117 [mEh]       0.00000073 [kcal/mol]       0.00000306 [kJ/mol]
      Exch10                        0.00000117 [mEh]       0.00000073 [kcal/mol]       0.00000306 [kJ/mol]
      Exch10(S^2)                   0.00000117 [mEh]       0.00000073 [kcal/mol]       0.00000306 [kJ/mol]

    Induction                      -0.00030798 [mEh]      -0.00019326 [kcal/mol]      -0.00080860 [kJ/mol]
      Ind20,r                      -0.00045315 [mEh]      -0.00028436 [kcal/mol]      -0.00118975 [kJ/mol]
      Exch-Ind20,r                  0.00000195 [mEh]       0.00000123 [kcal/mol]       0.00000513 [kJ/mol]
      delta HF,r (2)                0.00014322 [mEh]       0.00008987 [kcal/mol]       0.00037601 [kJ/mol]

    Dispersion                     -0.00677538 [mEh]      -0.00425162 [kcal/mol]      -0.01778876 [kJ/mol]
      Disp20                       -0.00677547 [mEh]      -0.00425167 [kcal/mol]      -0.01778900 [kJ/mol]
      Exch-Disp20                   0.00000009 [mEh]       0.00000006 [kcal/mol]       0.00000024 [kJ/mol]
      Disp20 (SS)                  -0.00338774 [mEh]      -0.00212584 [kcal/mol]      -0.00889450 [kJ/mol]
      Disp20 (OS)                  -0.00338774 [mEh]      -0.00212584 [kcal/mol]      -0.00889450 [kJ/mol]
      Exch-Disp20 (SS)              0.00000007 [mEh]       0.00000005 [kcal/mol]       0.00000020 [kJ/mol]
      Exch-Disp20 (OS)              0.00000002 [mEh]       0.00000001 [kcal/mol]       0.00000005 [kJ/mol]

  Total HF                         -0.02749516 [mEh]      -0.01725347 [kcal/mol]      -0.07218853 [kJ/mol]
  Total SAPT0                      -0.03427054 [mEh]      -0.02150509 [kcal/mol]      -0.08997729 [kJ/mol]

  Special recipe for scaled SAPT0 (see Manual):
    Electrostatics sSAPT0          -0.02718834 [mEh]      -0.01706094 [kcal/mol]      -0.07138299 [kJ/mol]
    Exchange sSAPT0                 0.00000117 [mEh]       0.00000073 [kcal/mol]       0.00000306 [kJ/mol]
    Induction sSAPT0               -0.00030798 [mEh]      -0.00019326 [kcal/mol]      -0.00080860 [kJ/mol]
    Dispersion sSAPT0              -0.00677538 [mEh]      -0.00425162 [kcal/mol]      -0.01778876 [kJ/mol]
  Total sSAPT0                     -0.03427054 [mEh]      -0.02150509 [kcal/mol]      -0.08997729 [kJ/mol]
  --------------------------------------------------------------------------------------------------------

*** Psi4 exiting successfully. Buy a developer a beer!
