                               Psi4 1.4rc3

  ==> Input File <==

--------------------------------------------------------------------------
# PSI4 file produced by CrystaLattE

# Generated from:               pyrazole.xyz
# Psithon input for N-mer:      2mer-0+393
# Number of atoms per monomer:  [9, 9]
# Number of replicas:           2
# COM priority:                 1.431149694460e-05
# Minimum COM separations:      21.796
# Separation priority:          2.300014764510e-05
# Minimum monomer separations:  18.608
# Cutoff priority:              6.540950038121e-07
# Nuclear repulsion energy:     364.7254605888817

memory 7 GB

molecule Dimer_0_393 {
  N            6.27981210      -4.25303372       0.19313865
  N            6.06870777      -2.28125697       1.80544317
  H            3.66871156      -5.64628941      -1.96684001
  H            0.69034521      -2.37545694      -0.42864236
  H            3.35917442       0.17650601       3.09265017
  H            7.35266782      -1.99461311       2.90680702
  C            3.77952586      -1.21508453       1.76858172
  C            2.38242998      -2.55505538       0.04607681
  C            4.01771468      -4.38410490      -0.88761863
--
  N          -32.41233032     -16.14696995      -6.54661936
  N          -32.62343465     -14.17519320      -8.15892388
  H          -35.02343086     -17.54022564      -4.38664070
  H          -38.00179721     -14.26939318      -5.92483835
  H          -35.33296800     -11.71743022      -9.44613088
  H          -31.33947459     -13.88854934      -9.26028773
  C          -34.91261656     -13.10902076      -8.12206243
  C          -36.30971244     -14.44899162      -6.39955752
  C          -34.67442773     -16.27804113      -5.46586208
units = au
no_com
no_reorient
}

set {
  e_convergence 10
  d_convergence 10
  scf_type df
  mp2_type df
  cc_type df
  freeze_core true
}

energy('sapt0/aug-cc-pvdz')

--------------------------------------------------------------------------

  //              Dimer HF             //
    Molecular point group: c1
  Charge       = 0
  Multiplicity = 1
  Basis Set: AUG-CC-PVDZ
    Blend: AUG-CC-PVDZ
  Basis Set: (AUG-CC-PVDZ AUX)
    Blend: AUG-CC-PVDZ-JKFIT
  @DF-RHF Final Energy:  -449.52467779003160
    Total Energy =                       -449.5246777900315465
  //            Monomer A HF           //
    Molecular point group: c1
  Multiplicity = 1
  Basis Set: AUG-CC-PVDZ
    Blend: AUG-CC-PVDZ
  Basis Set: (AUG-CC-PVDZ AUX)
    Blend: AUG-CC-PVDZ-JKFIT
  @DF-RHF Final Energy:  -224.76233952075759
    Total Energy =                       -224.7623395207575925
  //            Monomer B HF           //
    Molecular point group: c1

    Geometry (in Bohr), charge = 0, multiplicity = 1:

       Center              X                  Y                   Z               Mass
    ------------   -----------------  -----------------  -----------------  -----------------
      Gh(N)           6.279812100000    -4.253033720000     0.193138650000    14.003074004430
      Gh(N)           6.068707770000    -2.281256970000     1.805443170000    14.003074004430
      Gh(H)           3.668711560000    -5.646289410000    -1.966840010000     1.007825032230
      Gh(H)           0.690345210000    -2.375456940000    -0.428642360000     1.007825032230
      Gh(H)           3.359174420000     0.176506010000     3.092650170000     1.007825032230
      Gh(H)           7.352667820000    -1.994613110000     2.906807020000     1.007825032230
      Gh(C)           3.779525860000    -1.215084530000     1.768581720000    12.000000000000
      Gh(C)           2.382429980000    -2.555055380000     0.046076810000    12.000000000000
      Gh(C)           4.017714680000    -4.384104900000    -0.887618630000    12.000000000000
         N          -32.412330320000   -16.146969950000    -6.546619360000    14.003074004430
         N          -32.623434650000   -14.175193200000    -8.158923880000    14.003074004430
         H          -35.023430860000   -17.540225640000    -4.386640700000     1.007825032230
         H          -38.001797210000   -14.269393180000    -5.924838350000     1.007825032230
         H          -35.332968000000   -11.717430220000    -9.446130880000     1.007825032230
         H          -31.339474590000   -13.888549340000    -9.260287730000     1.007825032230
         C          -34.912616560000   -13.109020760000    -8.122062430000    12.000000000000
         C          -36.309712440000   -14.448991620000    -6.399557520000    12.000000000000
         C          -34.674427730000   -16.278041130000    -5.465862080000    12.000000000000

  Charge       = 0
  Multiplicity = 1
  Basis Set: AUG-CC-PVDZ
    Blend: AUG-CC-PVDZ
  Basis Set: (AUG-CC-PVDZ AUX)
    Blend: AUG-CC-PVDZ-JKFIT

    Orbital Energies [Eh]
    ---------------------

    Doubly Occupied:

       1A    -15.636223     2A    -15.592313     3A    -11.279894
       4A    -11.237784     5A    -11.209891     6A     -1.386922
       7A     -1.121901     8A     -1.066898     9A     -0.872768
      10A     -0.837061    11A     -0.757292    12A     -0.645746
      13A     -0.620834    14A     -0.609140    15A     -0.583920
      16A     -0.461404    17A     -0.370721    18A     -0.346048

  @DF-RHF Final Energy:  -224.76233952336838

   => Energetics <=

    Nuclear Repulsion Energy =            166.6240564756998879
    One-Electron Energy =                -633.4992734457630377
    Two-Electron Energy =                 242.1128774466947675
    Total Energy =                       -224.7623395233683823

  Dipole Moment: [D]
     X:    -1.0235      Y:     1.6055      Z:    -1.4733     Total:     2.4075

    SAPT Results
  --------------------------------------------------------------------------------------------------------
    Electrostatics                  0.00120381 [mEh]       0.00075540 [kcal/mol]       0.00316061 [kJ/mol]
      Elst10,r                      0.00120381 [mEh]       0.00075540 [kcal/mol]       0.00316061 [kJ/mol]

    Exchange                        0.00000000 [mEh]       0.00000000 [kcal/mol]       0.00000000 [kJ/mol]
      Exch10                        0.00000000 [mEh]       0.00000000 [kcal/mol]       0.00000000 [kJ/mol]
      Exch10(S^2)                   0.00000000 [mEh]       0.00000000 [kcal/mol]       0.00000000 [kJ/mol]

    Induction                       0.00005028 [mEh]       0.00003155 [kcal/mol]       0.00013202 [kJ/mol]
      Ind20,r                      -0.00000855 [mEh]      -0.00000537 [kcal/mol]      -0.00002246 [kJ/mol]
      Exch-Ind20,r                  0.00000000 [mEh]       0.00000000 [kcal/mol]       0.00000000 [kJ/mol]
      delta HF,r (2)                0.00005884 [mEh]       0.00003692 [kcal/mol]       0.00015448 [kJ/mol]

    Dispersion                     -0.00024724 [mEh]      -0.00015514 [kcal/mol]      -0.00064912 [kJ/mol]
      Disp20                       -0.00024724 [mEh]      -0.00015514 [kcal/mol]      -0.00064912 [kJ/mol]
      Exch-Disp20                   0.00000000 [mEh]       0.00000000 [kcal/mol]       0.00000000 [kJ/mol]
      Disp20 (SS)                  -0.00012362 [mEh]      -0.00007757 [kcal/mol]      -0.00032456 [kJ/mol]
      Disp20 (OS)                  -0.00012362 [mEh]      -0.00007757 [kcal/mol]      -0.00032456 [kJ/mol]
      Exch-Disp20 (SS)              0.00000000 [mEh]       0.00000000 [kcal/mol]       0.00000000 [kJ/mol]
      Exch-Disp20 (OS)              0.00000000 [mEh]       0.00000000 [kcal/mol]       0.00000000 [kJ/mol]

  Total HF                          0.00125409 [mEh]       0.00078696 [kcal/mol]       0.00329262 [kJ/mol]
  Total SAPT0                       0.00100686 [mEh]       0.00063181 [kcal/mol]       0.00264350 [kJ/mol]

  Special recipe for scaled SAPT0 (see Manual):
    Electrostatics sSAPT0           0.00120381 [mEh]       0.00075540 [kcal/mol]       0.00316061 [kJ/mol]
    Exchange sSAPT0                 0.00000000 [mEh]       0.00000000 [kcal/mol]       0.00000000 [kJ/mol]
    Induction sSAPT0                0.00005028 [mEh]       0.00003155 [kcal/mol]       0.00013202 [kJ/mol]
    Dispersion sSAPT0              -0.00024724 [mEh]      -0.00015514 [kcal/mol]      -0.00064912 [kJ/mol]
  Total sSAPT0                      0.00100686 [mEh]       0.00063181 [kcal/mol]       0.00264350 [kJ/mol]
  --------------------------------------------------------------------------------------------------------

*** Psi4 exiting successfully. Buy a developer a beer!
