                               Psi4 1.4rc3

  ==> Input File <==

--------------------------------------------------------------------------
# PSI4 file produced by CrystaLattE

# Generated from:               pyrazole.xyz
# Psithon input for N-mer:      2mer-0+128
# Number of atoms per monomer:  [9, 9]
# Number of replicas:           2
# COM priority:                 3.371799221374e-05
# Minimum COM separations:      16.380
# Separation priority:          6.781374680407e-05
# Minimum monomer separations:  12.977
# Cutoff priority:              2.765393815268e-06
# Nuclear repulsion energy:     375.20578340494876

memory 7 GB

molecule Dimer_0_128 {
  N            6.27981210      -4.25303372       0.19313865
  N            6.06870777      -2.28125697       1.80544317
  H            3.66871156      -5.64628941      -1.96684001
  H            0.69034521      -2.37545694      -0.42864236
  H            3.35917442       0.17650601       3.09265017
  H            7.35266782      -1.99461311       2.90680702
  C            3.77952586      -1.21508453       1.76858172
  C            2.38242998      -2.55505538       0.04607681
  C            4.01771468      -4.38410490      -0.88761863
--
  N          -24.67390184      -4.25303372       0.19313865
  N          -24.88500617      -2.28125697       1.80544317
  H          -27.28500238      -5.64628941      -1.96684001
  H          -30.26336873      -2.37545694      -0.42864236
  H          -27.59453951       0.17650601       3.09265017
  H          -23.60104611      -1.99461311       2.90680702
  C          -27.17418808      -1.21508453       1.76858172
  C          -28.57128396      -2.55505538       0.04607681
  C          -26.93599925      -4.38410490      -0.88761863
units = au
no_com
no_reorient
}

set {
  e_convergence 10
  d_convergence 10
  scf_type df
  mp2_type df
  cc_type df
  freeze_core true
}

energy('sapt0/aug-cc-pvdz')

--------------------------------------------------------------------------

  //              Dimer HF             //
    Molecular point group: c1
  Charge       = 0
  Multiplicity = 1
  Basis Set: AUG-CC-PVDZ
    Blend: AUG-CC-PVDZ
  Basis Set: (AUG-CC-PVDZ AUX)
    Blend: AUG-CC-PVDZ-JKFIT
  @DF-RHF Final Energy:  -449.52466661737810
    Total Energy =                       -449.5246666173781023
  //            Monomer A HF           //
    Molecular point group: c1
  Multiplicity = 1
  Basis Set: AUG-CC-PVDZ
    Blend: AUG-CC-PVDZ
  Basis Set: (AUG-CC-PVDZ AUX)
    Blend: AUG-CC-PVDZ-JKFIT
  @DF-RHF Final Energy:  -224.76233952133347
    Total Energy =                       -224.7623395213334732
  //            Monomer B HF           //
    Molecular point group: c1

    Geometry (in Bohr), charge = 0, multiplicity = 1:

       Center              X                  Y                   Z               Mass
    ------------   -----------------  -----------------  -----------------  -----------------
      Gh(N)           6.279812100000    -4.253033720000     0.193138650000    14.003074004430
      Gh(N)           6.068707770000    -2.281256970000     1.805443170000    14.003074004430
      Gh(H)           3.668711560000    -5.646289410000    -1.966840010000     1.007825032230
      Gh(H)           0.690345210000    -2.375456940000    -0.428642360000     1.007825032230
      Gh(H)           3.359174420000     0.176506010000     3.092650170000     1.007825032230
      Gh(H)           7.352667820000    -1.994613110000     2.906807020000     1.007825032230
      Gh(C)           3.779525860000    -1.215084530000     1.768581720000    12.000000000000
      Gh(C)           2.382429980000    -2.555055380000     0.046076810000    12.000000000000
      Gh(C)           4.017714680000    -4.384104900000    -0.887618630000    12.000000000000
         N          -24.673901840000    -4.253033720000     0.193138650000    14.003074004430
         N          -24.885006170000    -2.281256970000     1.805443170000    14.003074004430
         H          -27.285002380000    -5.646289410000    -1.966840010000     1.007825032230
         H          -30.263368730000    -2.375456940000    -0.428642360000     1.007825032230
         H          -27.594539510000     0.176506010000     3.092650170000     1.007825032230
         H          -23.601046110000    -1.994613110000     2.906807020000     1.007825032230
         C          -27.174188080000    -1.215084530000     1.768581720000    12.000000000000
         C          -28.571283960000    -2.555055380000     0.046076810000    12.000000000000
         C          -26.935999250000    -4.384104900000    -0.887618630000    12.000000000000

  Charge       = 0
  Multiplicity = 1
  Basis Set: AUG-CC-PVDZ
    Blend: AUG-CC-PVDZ
  Basis Set: (AUG-CC-PVDZ AUX)
    Blend: AUG-CC-PVDZ-JKFIT

    Orbital Energies [Eh]
    ---------------------

    Doubly Occupied:

       1A    -15.636223     2A    -15.592313     3A    -11.279894
       4A    -11.237784     5A    -11.209891     6A     -1.386922
       7A     -1.121901     8A     -1.066898     9A     -0.872768
      10A     -0.837061    11A     -0.757292    12A     -0.645746
      13A     -0.620834    14A     -0.609140    15A     -0.583920
      16A     -0.461404    17A     -0.370721    18A     -0.346048

  @DF-RHF Final Energy:  -224.76233952544004

   => Energetics <=

    Nuclear Repulsion Energy =            166.6240564642102129
    One-Electron Energy =                -633.4992734352683783
    Two-Electron Energy =                 242.1128774456181532
    Total Energy =                       -224.7623395254400407

  Dipole Moment: [D]
     X:    -1.0235      Y:     1.6055      Z:     1.4733     Total:     2.4075

    SAPT Results
  --------------------------------------------------------------------------------------------------------
    Electrostatics                  0.01244809 [mEh]       0.00781129 [kcal/mol]       0.03268245 [kJ/mol]
      Elst10,r                      0.01244809 [mEh]       0.00781129 [kcal/mol]       0.03268245 [kJ/mol]

    Exchange                        0.00000000 [mEh]       0.00000000 [kcal/mol]       0.00000000 [kJ/mol]
      Exch10                        0.00000000 [mEh]       0.00000000 [kcal/mol]       0.00000000 [kJ/mol]
      Exch10(S^2)                   0.00000000 [mEh]       0.00000000 [kcal/mol]       0.00000000 [kJ/mol]

    Induction                      -0.00001869 [mEh]      -0.00001173 [kcal/mol]      -0.00004908 [kJ/mol]
      Ind20,r                      -0.00009443 [mEh]      -0.00005926 [kcal/mol]      -0.00024793 [kJ/mol]
      Exch-Ind20,r                  0.00000000 [mEh]       0.00000000 [kcal/mol]       0.00000001 [kJ/mol]
      delta HF,r (2)                0.00007573 [mEh]       0.00004752 [kcal/mol]       0.00019884 [kJ/mol]

    Dispersion                     -0.00149436 [mEh]      -0.00093773 [kcal/mol]      -0.00392345 [kJ/mol]
      Disp20                       -0.00149436 [mEh]      -0.00093773 [kcal/mol]      -0.00392345 [kJ/mol]
      Exch-Disp20                   0.00000000 [mEh]       0.00000000 [kcal/mol]       0.00000000 [kJ/mol]
      Disp20 (SS)                  -0.00074718 [mEh]      -0.00046886 [kcal/mol]      -0.00196173 [kJ/mol]
      Disp20 (OS)                  -0.00074718 [mEh]      -0.00046886 [kcal/mol]      -0.00196173 [kJ/mol]
      Exch-Disp20 (SS)              0.00000000 [mEh]       0.00000000 [kcal/mol]       0.00000000 [kJ/mol]
      Exch-Disp20 (OS)              0.00000000 [mEh]       0.00000000 [kcal/mol]       0.00000000 [kJ/mol]

  Total HF                          0.01242940 [mEh]       0.00779956 [kcal/mol]       0.03263337 [kJ/mol]
  Total SAPT0                       0.01093503 [mEh]       0.00686184 [kcal/mol]       0.02870992 [kJ/mol]

  Special recipe for scaled SAPT0 (see Manual):
    Electrostatics sSAPT0           0.01244809 [mEh]       0.00781129 [kcal/mol]       0.03268245 [kJ/mol]
    Exchange sSAPT0                 0.00000000 [mEh]       0.00000000 [kcal/mol]       0.00000000 [kJ/mol]
    Induction sSAPT0               -0.00001869 [mEh]      -0.00001173 [kcal/mol]      -0.00004908 [kJ/mol]
    Dispersion sSAPT0              -0.00149436 [mEh]      -0.00093773 [kcal/mol]      -0.00392345 [kJ/mol]
  Total sSAPT0                      0.01093503 [mEh]       0.00686184 [kcal/mol]       0.02870992 [kJ/mol]
  --------------------------------------------------------------------------------------------------------

*** Psi4 exiting successfully. Buy a developer a beer!
