                               Psi4 1.4rc3

  ==> Input File <==

--------------------------------------------------------------------------
# PSI4 file produced by CrystaLattE

# Generated from:               pyrazole.xyz
# Psithon input for N-mer:      2mer-0+92
# Number of atoms per monomer:  [9, 9]
# Number of replicas:           2
# COM priority:                 6.129245124161e-05
# Minimum COM separations:      13.421
# Separation priority:          1.455131277887e-04
# Minimum monomer separations:  10.061
# Cutoff priority:              7.653667090382e-06
# Nuclear repulsion energy:     384.460543461102

memory 7 GB

molecule Dimer_0_92 {
  N            6.27981210      -4.25303372       0.19313865
  N            6.06870777      -2.28125697       1.80544317
  H            3.66871156      -5.64628941      -1.96684001
  H            0.69034521      -2.37545694      -0.42864236
  H            3.35917442       0.17650601       3.09265017
  H            7.35266782      -1.99461311       2.90680702
  C            3.77952586      -1.21508453       1.76858172
  C            2.38242998      -2.55505538       0.04607681
  C            4.01771468      -4.38410490      -0.88761863
--
  N           -9.19704487      -7.53338133     -19.00553393
  N           -9.40814920      -9.50515808     -17.39322940
  H          -11.80814541      -6.14012564     -21.16551258
  H          -14.78651176      -9.41095811     -19.62731493
  H          -12.11768255     -11.96292106     -16.10602240
  H           -8.12418914      -9.79180194     -16.29186555
  C          -11.69733111     -10.57133052     -17.43009085
  C          -13.09442699      -9.23135967     -19.15259576
  C          -11.45914228      -7.40231015     -20.08629120
units = au
no_com
no_reorient
}

set {
  e_convergence 10
  d_convergence 10
  scf_type df
  mp2_type df
  cc_type df
  freeze_core true
}

energy('sapt0/aug-cc-pvdz')

--------------------------------------------------------------------------

  //              Dimer HF             //
    Molecular point group: c1
  Charge       = 0
  Multiplicity = 1
  Basis Set: AUG-CC-PVDZ
    Blend: AUG-CC-PVDZ
  Basis Set: (AUG-CC-PVDZ AUX)
    Blend: AUG-CC-PVDZ-JKFIT
  @DF-RHF Final Energy:  -449.52466850938646
    Total Energy =                       -449.5246685093865153
  //            Monomer A HF           //
    Molecular point group: c1
  Multiplicity = 1
  Basis Set: AUG-CC-PVDZ
    Blend: AUG-CC-PVDZ
  Basis Set: (AUG-CC-PVDZ AUX)
    Blend: AUG-CC-PVDZ-JKFIT
  @DF-RHF Final Energy:  -224.76234005870140
    Total Energy =                       -224.7623400587013975
  //            Monomer B HF           //
    Molecular point group: c1

    Geometry (in Bohr), charge = 0, multiplicity = 1:

       Center              X                  Y                   Z               Mass
    ------------   -----------------  -----------------  -----------------  -----------------
      Gh(N)           6.279812100000    -4.253033720000     0.193138650000    14.003074004430
      Gh(N)           6.068707770000    -2.281256970000     1.805443170000    14.003074004430
      Gh(H)           3.668711560000    -5.646289410000    -1.966840010000     1.007825032230
      Gh(H)           0.690345210000    -2.375456940000    -0.428642360000     1.007825032230
      Gh(H)           3.359174420000     0.176506010000     3.092650170000     1.007825032230
      Gh(H)           7.352667820000    -1.994613110000     2.906807020000     1.007825032230
      Gh(C)           3.779525860000    -1.215084530000     1.768581720000    12.000000000000
      Gh(C)           2.382429980000    -2.555055380000     0.046076810000    12.000000000000
      Gh(C)           4.017714680000    -4.384104900000    -0.887618630000    12.000000000000
         N           -9.197044870000    -7.533381330000   -19.005533930000    14.003074004430
         N           -9.408149200000    -9.505158080000   -17.393229400000    14.003074004430
         H          -11.808145410000    -6.140125640000   -21.165512580000     1.007825032230
         H          -14.786511760000    -9.410958110000   -19.627314930000     1.007825032230
         H          -12.117682550000   -11.962921060000   -16.106022400000     1.007825032230
         H           -8.124189140000    -9.791801940000   -16.291865550000     1.007825032230
         C          -11.697331110000   -10.571330520000   -17.430090850000    12.000000000000
         C          -13.094426990000    -9.231359670000   -19.152595760000    12.000000000000
         C          -11.459142280000    -7.402310150000   -20.086291200000    12.000000000000

  Charge       = 0
  Multiplicity = 1
  Basis Set: AUG-CC-PVDZ
    Blend: AUG-CC-PVDZ
  Basis Set: (AUG-CC-PVDZ AUX)
    Blend: AUG-CC-PVDZ-JKFIT

    Orbital Energies [Eh]
    ---------------------

    Doubly Occupied:

       1A    -15.636223     2A    -15.592314     3A    -11.279894
       4A    -11.237784     5A    -11.209891     6A     -1.386922
       7A     -1.121901     8A     -1.066898     9A     -0.872768
      10A     -0.837061    11A     -0.757292    12A     -0.645746
      13A     -0.620834    14A     -0.609140    15A     -0.583920
      16A     -0.461404    17A     -0.370721    18A     -0.346047

  @DF-RHF Final Energy:  -224.76233967942088

   => Energetics <=

    Nuclear Repulsion Energy =            166.6240564291590545
    One-Electron Energy =                -633.4992738084068833
    Two-Electron Energy =                 242.1128776998269529
    Total Energy =                       -224.7623396794208759

  Dipole Moment: [D]
     X:    -1.0235      Y:    -1.6055      Z:     1.4733     Total:     2.4075

    SAPT Results
  --------------------------------------------------------------------------------------------------------
    Electrostatics                  0.01136643 [mEh]       0.00713254 [kcal/mol]       0.02984255 [kJ/mol]
      Elst10,r                      0.01136643 [mEh]       0.00713254 [kcal/mol]       0.02984255 [kJ/mol]

    Exchange                        0.00000022 [mEh]       0.00000014 [kcal/mol]       0.00000057 [kJ/mol]
      Exch10                        0.00000022 [mEh]       0.00000014 [kcal/mol]       0.00000057 [kJ/mol]
      Exch10(S^2)                   0.00000022 [mEh]       0.00000014 [kcal/mol]       0.00000057 [kJ/mol]

    Induction                      -0.00013791 [mEh]      -0.00008654 [kcal/mol]      -0.00036209 [kJ/mol]
      Ind20,r                      -0.00019619 [mEh]      -0.00012311 [kcal/mol]      -0.00051509 [kJ/mol]
      Exch-Ind20,r                  0.00000060 [mEh]       0.00000037 [kcal/mol]       0.00000156 [kJ/mol]
      delta HF,r (2)                0.00005768 [mEh]       0.00003620 [kcal/mol]       0.00015144 [kJ/mol]

    Dispersion                     -0.00501374 [mEh]      -0.00314617 [kcal/mol]      -0.01316357 [kJ/mol]
      Disp20                       -0.00501379 [mEh]      -0.00314620 [kcal/mol]      -0.01316370 [kJ/mol]
      Exch-Disp20                   0.00000005 [mEh]       0.00000003 [kcal/mol]       0.00000013 [kJ/mol]
      Disp20 (SS)                  -0.00250689 [mEh]      -0.00157310 [kcal/mol]      -0.00658185 [kJ/mol]
      Disp20 (OS)                  -0.00250689 [mEh]      -0.00157310 [kcal/mol]      -0.00658185 [kJ/mol]
      Exch-Disp20 (SS)              0.00000004 [mEh]       0.00000003 [kcal/mol]       0.00000011 [kJ/mol]
      Exch-Disp20 (OS)              0.00000001 [mEh]       0.00000001 [kcal/mol]       0.00000003 [kJ/mol]

  Total HF                          0.01122874 [mEh]       0.00704614 [kcal/mol]       0.02948104 [kJ/mol]
  Total SAPT0                       0.00621500 [mEh]       0.00389997 [kcal/mol]       0.01631747 [kJ/mol]

  Special recipe for scaled SAPT0 (see Manual):
    Electrostatics sSAPT0           0.01136643 [mEh]       0.00713254 [kcal/mol]       0.02984255 [kJ/mol]
    Exchange sSAPT0                 0.00000022 [mEh]       0.00000014 [kcal/mol]       0.00000057 [kJ/mol]
    Induction sSAPT0               -0.00013791 [mEh]      -0.00008654 [kcal/mol]      -0.00036209 [kJ/mol]
    Dispersion sSAPT0              -0.00501374 [mEh]      -0.00314617 [kcal/mol]      -0.01316357 [kJ/mol]
  Total sSAPT0                      0.00621500 [mEh]       0.00389997 [kcal/mol]       0.01631747 [kJ/mol]
  --------------------------------------------------------------------------------------------------------

*** Psi4 exiting successfully. Buy a developer a beer!
