                               Psi4 1.4rc3

  ==> Input File <==

--------------------------------------------------------------------------
# PSI4 file produced by CrystaLattE

# Generated from:               pyrazole.xyz
# Psithon input for N-mer:      2mer-0+542
# Number of atoms per monomer:  [9, 9]
# Number of replicas:           1
# COM priority:                 1.444838074269e-05
# Minimum COM separations:      21.727
# Separation priority:          1.974173095354e-05
# Minimum monomer separations:  19.580
# Cutoff priority:              5.335563650943e-07
# Nuclear repulsion energy:     364.7844810896223

memory 7 GB

molecule Dimer_0_542 {
  N            6.27981210      -4.25303372       0.19313865
  N            6.06870777      -2.28125697       1.80544317
  H            3.66871156      -5.64628941      -1.96684001
  H            0.69034521      -2.37545694      -0.42864236
  H            3.35917442       0.17650601       3.09265017
  H            7.35266782      -1.99461311       2.90680702
  C            3.77952586      -1.21508453       1.76858172
  C            2.38242998      -2.55505538       0.04607681
  C            4.01771468      -4.38410490      -0.88761863
--
  N          -12.67871861     -37.97519749      14.38697326
  N          -12.55985635     -40.01310452      12.84979954
  H          -10.00555588     -35.57428752      15.10500361
  H           -7.11091932     -38.01682626      12.34986611
  H          -10.04734339     -41.72987528      10.44522980
  H          -14.02226457     -40.82308158      12.46403422
  C          -10.27701995     -40.34328019      11.82075069
  C           -8.79402751     -38.41360798      12.71067316
  C          -10.35533284     -37.02844016      14.30237111
units = au
no_com
no_reorient
}

set {
  e_convergence 10
  d_convergence 10
  scf_type df
  mp2_type df
  cc_type df
  freeze_core true
}

energy('sapt0/aug-cc-pvdz')

--------------------------------------------------------------------------

  //              Dimer HF             //
    Molecular point group: c1
  Charge       = 0
  Multiplicity = 1
  Basis Set: AUG-CC-PVDZ
    Blend: AUG-CC-PVDZ
  Basis Set: (AUG-CC-PVDZ AUX)
    Blend: AUG-CC-PVDZ-JKFIT
  @DF-RHF Final Energy:  -449.52478313795427
    Total Energy =                       -449.5247831379542731
  //            Monomer A HF           //
    Molecular point group: c1
  Multiplicity = 1
  Basis Set: AUG-CC-PVDZ
    Blend: AUG-CC-PVDZ
  Basis Set: (AUG-CC-PVDZ AUX)
    Blend: AUG-CC-PVDZ-JKFIT
  @DF-RHF Final Energy:  -224.76233952187346
    Total Energy =                       -224.7623395218734572
  //            Monomer B HF           //
    Molecular point group: c1

    Geometry (in Bohr), charge = 0, multiplicity = 1:

       Center              X                  Y                   Z               Mass
    ------------   -----------------  -----------------  -----------------  -----------------
      Gh(N)           6.279812100000    -4.253033720000     0.193138650000    14.003074004430
      Gh(N)           6.068707770000    -2.281256970000     1.805443170000    14.003074004430
      Gh(H)           3.668711560000    -5.646289410000    -1.966840010000     1.007825032230
      Gh(H)           0.690345210000    -2.375456940000    -0.428642360000     1.007825032230
      Gh(H)           3.359174420000     0.176506010000     3.092650170000     1.007825032230
      Gh(H)           7.352667820000    -1.994613110000     2.906807020000     1.007825032230
      Gh(C)           3.779525860000    -1.215084530000     1.768581720000    12.000000000000
      Gh(C)           2.382429980000    -2.555055380000     0.046076810000    12.000000000000
      Gh(C)           4.017714680000    -4.384104900000    -0.887618630000    12.000000000000
         N          -12.678718610000   -37.975197490000    14.386973260000    14.003074004430
         N          -12.559856350000   -40.013104520000    12.849799540000    14.003074004430
         H          -10.005555880000   -35.574287520000    15.105003610000     1.007825032230
         H           -7.110919320000   -38.016826260000    12.349866110000     1.007825032230
         H          -10.047343390000   -41.729875280000    10.445229800000     1.007825032230
         H          -14.022264570000   -40.823081580000    12.464034220000     1.007825032230
         C          -10.277019950000   -40.343280190000    11.820750690000    12.000000000000
         C           -8.794027510000   -38.413607980000    12.710673160000    12.000000000000
         C          -10.355332840000   -37.028440160000    14.302371110000    12.000000000000

  Charge       = 0
  Multiplicity = 1
  Basis Set: AUG-CC-PVDZ
    Blend: AUG-CC-PVDZ
  Basis Set: (AUG-CC-PVDZ AUX)
    Blend: AUG-CC-PVDZ-JKFIT

    Orbital Energies [Eh]
    ---------------------

    Doubly Occupied:

       1A    -15.636233     2A    -15.592291     3A    -11.279903
       4A    -11.237759     5A    -11.209884     6A     -1.387001
       7A     -1.121894     8A     -1.066928     9A     -0.872759
      10A     -0.837039    11A     -0.757272    12A     -0.645745
      13A     -0.620828    14A     -0.609177    15A     -0.583905
      16A     -0.461413    17A     -0.370715    18A     -0.346055

  @DF-RHF Final Energy:  -224.76243506044216

   => Energetics <=

    Nuclear Repulsion Energy =            166.6286027962079572
    One-Electron Energy =                -633.5084733691907104
    Two-Electron Energy =                 242.1174355125406237
    Total Energy =                       -224.7624350604421579

  Dipole Moment: [D]
     X:     0.7394      Y:    -1.4336      Z:    -1.7871     Total:     2.4074

    SAPT Results
  --------------------------------------------------------------------------------------------------------
    Electrostatics                 -0.00860912 [mEh]      -0.00540230 [kcal/mol]      -0.02260323 [kJ/mol]
      Elst10,r                     -0.00860912 [mEh]      -0.00540230 [kcal/mol]      -0.02260323 [kJ/mol]

    Exchange                        0.00000000 [mEh]       0.00000000 [kcal/mol]       0.00000000 [kJ/mol]
      Exch10                        0.00000000 [mEh]       0.00000000 [kcal/mol]       0.00000000 [kJ/mol]
      Exch10(S^2)                   0.00000000 [mEh]       0.00000000 [kcal/mol]       0.00000000 [kJ/mol]

    Induction                       0.00005348 [mEh]       0.00003356 [kcal/mol]       0.00014040 [kJ/mol]
      Ind20,r                      -0.00000822 [mEh]      -0.00000516 [kcal/mol]      -0.00002157 [kJ/mol]
      Exch-Ind20,r                  0.00000000 [mEh]       0.00000000 [kcal/mol]       0.00000000 [kJ/mol]
      delta HF,r (2)                0.00006169 [mEh]       0.00003871 [kcal/mol]       0.00016198 [kJ/mol]

    Dispersion                     -0.00022463 [mEh]      -0.00014096 [kcal/mol]      -0.00058977 [kJ/mol]
      Disp20                       -0.00022463 [mEh]      -0.00014096 [kcal/mol]      -0.00058977 [kJ/mol]
      Exch-Disp20                   0.00000000 [mEh]       0.00000000 [kcal/mol]       0.00000000 [kJ/mol]
      Disp20 (SS)                  -0.00011232 [mEh]      -0.00007048 [kcal/mol]      -0.00029489 [kJ/mol]
      Disp20 (OS)                  -0.00011232 [mEh]      -0.00007048 [kcal/mol]      -0.00029489 [kJ/mol]
      Exch-Disp20 (SS)              0.00000000 [mEh]       0.00000000 [kcal/mol]       0.00000000 [kJ/mol]
      Exch-Disp20 (OS)              0.00000000 [mEh]       0.00000000 [kcal/mol]       0.00000000 [kJ/mol]

  Total HF                         -0.00855564 [mEh]      -0.00536874 [kcal/mol]      -0.02246283 [kJ/mol]
  Total SAPT0                      -0.00878027 [mEh]      -0.00550970 [kcal/mol]      -0.02305260 [kJ/mol]

  Special recipe for scaled SAPT0 (see Manual):
    Electrostatics sSAPT0          -0.00860912 [mEh]      -0.00540230 [kcal/mol]      -0.02260323 [kJ/mol]
    Exchange sSAPT0                 0.00000000 [mEh]       0.00000000 [kcal/mol]       0.00000000 [kJ/mol]
    Induction sSAPT0                0.00005348 [mEh]       0.00003356 [kcal/mol]       0.00014040 [kJ/mol]
    Dispersion sSAPT0              -0.00022463 [mEh]      -0.00014096 [kcal/mol]      -0.00058977 [kJ/mol]
  Total sSAPT0                     -0.00878027 [mEh]      -0.00550970 [kcal/mol]      -0.02305260 [kJ/mol]
  --------------------------------------------------------------------------------------------------------

*** Psi4 exiting successfully. Buy a developer a beer!
