                               Psi4 1.4rc3

  ==> Input File <==

--------------------------------------------------------------------------
# PSI4 file produced by CrystaLattE

# Generated from:               pyrazole.xyz
# Psithon input for N-mer:      2mer-0+450
# Number of atoms per monomer:  [9, 9]
# Number of replicas:           2
# COM priority:                 1.472912794021e-05
# Minimum COM separations:      21.588
# Separation priority:          1.962559013836e-05
# Minimum monomer separations:  19.618
# Cutoff priority:              5.293752503251e-07
# Nuclear repulsion energy:     364.95247042550943

memory 7 GB

molecule Dimer_0_450 {
  N            6.27981210      -4.25303372       0.19313865
  N            6.06870777      -2.28125697       1.80544317
  H            3.66871156      -5.64628941      -1.96684001
  H            0.69034521      -2.37545694      -0.42864236
  H            3.35917442       0.17650601       3.09265017
  H            7.35266782      -1.99461311       2.90680702
  C            3.77952586      -1.21508453       1.76858172
  C            2.38242998      -2.55505538       0.04607681
  C            4.01771468      -4.38410490      -0.88761863
--
  N           -1.45861638       4.36055490     -38.54440698
  N           -1.66972071       2.38877815     -40.15671150
  H           -4.06971692       5.75381059     -36.38442832
  H           -7.04808328       2.48297813     -37.92262597
  H           -4.37925406      -0.06898483     -41.44391850
  H           -0.38576066       2.10213429     -41.25807535
  C           -3.95890263       1.32260571     -40.11985005
  C           -5.35599851       2.66257657     -38.39734514
  C           -3.72071380       4.49162608     -37.46364970
units = au
no_com
no_reorient
}

set {
  e_convergence 10
  d_convergence 10
  scf_type df
  mp2_type df
  cc_type df
  freeze_core true
}

energy('sapt0/aug-cc-pvdz')

--------------------------------------------------------------------------

  //              Dimer HF             //
    Molecular point group: c1
  Charge       = 0
  Multiplicity = 1
  Basis Set: AUG-CC-PVDZ
    Blend: AUG-CC-PVDZ
  Basis Set: (AUG-CC-PVDZ AUX)
    Blend: AUG-CC-PVDZ-JKFIT
  @DF-RHF Final Energy:  -449.52467276873904
    Total Energy =                       -449.5246727687390376
  //            Monomer A HF           //
    Molecular point group: c1
  Multiplicity = 1
  Basis Set: AUG-CC-PVDZ
    Blend: AUG-CC-PVDZ
  Basis Set: (AUG-CC-PVDZ AUX)
    Blend: AUG-CC-PVDZ-JKFIT
  @DF-RHF Final Energy:  -224.76233952149008
    Total Energy =                       -224.7623395214900768
  //            Monomer B HF           //
    Molecular point group: c1

    Geometry (in Bohr), charge = 0, multiplicity = 1:

       Center              X                  Y                   Z               Mass
    ------------   -----------------  -----------------  -----------------  -----------------
      Gh(N)           6.279812100000    -4.253033720000     0.193138650000    14.003074004430
      Gh(N)           6.068707770000    -2.281256970000     1.805443170000    14.003074004430
      Gh(H)           3.668711560000    -5.646289410000    -1.966840010000     1.007825032230
      Gh(H)           0.690345210000    -2.375456940000    -0.428642360000     1.007825032230
      Gh(H)           3.359174420000     0.176506010000     3.092650170000     1.007825032230
      Gh(H)           7.352667820000    -1.994613110000     2.906807020000     1.007825032230
      Gh(C)           3.779525860000    -1.215084530000     1.768581720000    12.000000000000
      Gh(C)           2.382429980000    -2.555055380000     0.046076810000    12.000000000000
      Gh(C)           4.017714680000    -4.384104900000    -0.887618630000    12.000000000000
         N           -1.458616380000     4.360554900000   -38.544406980000    14.003074004430
         N           -1.669720710000     2.388778150000   -40.156711500000    14.003074004430
         H           -4.069716920000     5.753810590000   -36.384428320000     1.007825032230
         H           -7.048083280000     2.482978130000   -37.922625970000     1.007825032230
         H           -4.379254060000    -0.068984830000   -41.443918500000     1.007825032230
         H           -0.385760660000     2.102134290000   -41.258075350000     1.007825032230
         C           -3.958902630000     1.322605710000   -40.119850050000    12.000000000000
         C           -5.355998510000     2.662576570000   -38.397345140000    12.000000000000
         C           -3.720713800000     4.491626080000   -37.463649700000    12.000000000000

  Charge       = 0
  Multiplicity = 1
  Basis Set: AUG-CC-PVDZ
    Blend: AUG-CC-PVDZ
  Basis Set: (AUG-CC-PVDZ AUX)
    Blend: AUG-CC-PVDZ-JKFIT

    Orbital Energies [Eh]
    ---------------------

    Doubly Occupied:

       1A    -15.636223     2A    -15.592313     3A    -11.279894
       4A    -11.237784     5A    -11.209891     6A     -1.386922
       7A     -1.121901     8A     -1.066898     9A     -0.872768
      10A     -0.837061    11A     -0.757292    12A     -0.645746
      13A     -0.620834    14A     -0.609140    15A     -0.583920
      16A     -0.461404    17A     -0.370721    18A     -0.346048

  @DF-RHF Final Energy:  -224.76233952151534

   => Energetics <=

    Nuclear Repulsion Energy =            166.6240563060008242
    One-Electron Energy =                -633.4992731038682905
    Two-Electron Energy =                 242.1128772763520942
    Total Energy =                       -224.7623395215153437

  Dipole Moment: [D]
     X:    -1.0235      Y:    -1.6055      Z:    -1.4733     Total:     2.4075

    SAPT Results
  --------------------------------------------------------------------------------------------------------
    Electrostatics                  0.00621711 [mEh]       0.00390130 [kcal/mol]       0.01632303 [kJ/mol]
      Elst10,r                      0.00621711 [mEh]       0.00390130 [kcal/mol]       0.01632303 [kJ/mol]

    Exchange                        0.00000000 [mEh]       0.00000000 [kcal/mol]       0.00000000 [kJ/mol]
      Exch10                        0.00000000 [mEh]       0.00000000 [kcal/mol]       0.00000000 [kJ/mol]
      Exch10(S^2)                   0.00000000 [mEh]       0.00000000 [kcal/mol]       0.00000000 [kJ/mol]

    Induction                       0.00005715 [mEh]       0.00003586 [kcal/mol]       0.00015006 [kJ/mol]
      Ind20,r                      -0.00001102 [mEh]      -0.00000692 [kcal/mol]      -0.00002894 [kJ/mol]
      Exch-Ind20,r                  0.00000000 [mEh]       0.00000000 [kcal/mol]       0.00000000 [kJ/mol]
      delta HF,r (2)                0.00006818 [mEh]       0.00004278 [kcal/mol]       0.00017900 [kJ/mol]

    Dispersion                     -0.00023252 [mEh]      -0.00014591 [kcal/mol]      -0.00061049 [kJ/mol]
      Disp20                       -0.00023252 [mEh]      -0.00014591 [kcal/mol]      -0.00061049 [kJ/mol]
      Exch-Disp20                   0.00000000 [mEh]       0.00000000 [kcal/mol]       0.00000000 [kJ/mol]
      Disp20 (SS)                  -0.00011626 [mEh]      -0.00007296 [kcal/mol]      -0.00030524 [kJ/mol]
      Disp20 (OS)                  -0.00011626 [mEh]      -0.00007296 [kcal/mol]      -0.00030524 [kJ/mol]
      Exch-Disp20 (SS)              0.00000000 [mEh]       0.00000000 [kcal/mol]       0.00000000 [kJ/mol]
      Exch-Disp20 (OS)              0.00000000 [mEh]       0.00000000 [kcal/mol]       0.00000000 [kJ/mol]

  Total HF                          0.00627427 [mEh]       0.00393716 [kcal/mol]       0.01647308 [kJ/mol]
  Total SAPT0                       0.00604174 [mEh]       0.00379125 [kcal/mol]       0.01586260 [kJ/mol]

  Special recipe for scaled SAPT0 (see Manual):
    Electrostatics sSAPT0           0.00621711 [mEh]       0.00390130 [kcal/mol]       0.01632303 [kJ/mol]
    Exchange sSAPT0                 0.00000000 [mEh]       0.00000000 [kcal/mol]       0.00000000 [kJ/mol]
    Induction sSAPT0                0.00005715 [mEh]       0.00003586 [kcal/mol]       0.00015006 [kJ/mol]
    Dispersion sSAPT0              -0.00023252 [mEh]      -0.00014591 [kcal/mol]      -0.00061049 [kJ/mol]
  Total sSAPT0                      0.00604174 [mEh]       0.00379125 [kcal/mol]       0.01586260 [kJ/mol]
  --------------------------------------------------------------------------------------------------------

*** Psi4 exiting successfully. Buy a developer a beer!
