                               Psi4 1.4rc3

  ==> Input File <==

--------------------------------------------------------------------------
# PSI4 file produced by CrystaLattE

# Generated from:               pyrazole.xyz
# Psithon input for N-mer:      2mer-0+326
# Number of atoms per monomer:  [9, 9]
# Number of replicas:           1
# COM priority:                 1.725505473231e-05
# Minimum COM separations:      20.478
# Separation priority:          3.009499813282e-05
# Minimum monomer separations:  17.013
# Cutoff priority:              9.361075779712e-07
# Nuclear repulsion energy:     366.8144095179947

memory 7 GB

molecule Dimer_0_326 {
  N            6.27981210      -4.25303372       0.19313865
  N            6.06870777      -2.28125697       1.80544317
  H            3.66871156      -5.64628941      -1.96684001
  H            0.69034521      -2.37545694      -0.42864236
  H            3.35917442       0.17650601       3.09265017
  H            7.35266782      -1.99461311       2.90680702
  C            3.77952586      -1.21508453       1.76858172
  C            2.38242998      -2.55505538       0.04607681
  C            4.01771468      -4.38410490      -0.88761863
--
  N          -12.67871861      26.18878244      20.78653078
  N          -12.55985635      28.22668947      19.24935707
  H          -10.00555588      23.78787247      21.50456114
  H           -7.11091932      26.23041121      18.74942363
  H          -10.04734339      29.94346023      16.84478732
  H          -14.02226457      29.03666653      18.86359174
  C          -10.27701995      28.55686514      18.22030822
  C           -8.79402751      26.62719292      19.11023069
  C          -10.35533284      25.24202511      20.70192863
units = au
no_com
no_reorient
}

set {
  e_convergence 10
  d_convergence 10
  scf_type df
  mp2_type df
  cc_type df
  freeze_core true
}

energy('sapt0/aug-cc-pvdz')

--------------------------------------------------------------------------

  //              Dimer HF             //
    Molecular point group: c1
  Charge       = 0
  Multiplicity = 1
  Basis Set: AUG-CC-PVDZ
    Blend: AUG-CC-PVDZ
  Basis Set: (AUG-CC-PVDZ AUX)
    Blend: AUG-CC-PVDZ-JKFIT
  @DF-RHF Final Energy:  -449.52477513146471
    Total Energy =                       -449.5247751314647076
  //            Monomer A HF           //
    Molecular point group: c1
  Multiplicity = 1
  Basis Set: AUG-CC-PVDZ
    Blend: AUG-CC-PVDZ
  Basis Set: (AUG-CC-PVDZ AUX)
    Blend: AUG-CC-PVDZ-JKFIT
  @DF-RHF Final Energy:  -224.76233952081407
    Total Energy =                       -224.7623395208140664
  //            Monomer B HF           //
    Molecular point group: c1

    Geometry (in Bohr), charge = 0, multiplicity = 1:

       Center              X                  Y                   Z               Mass
    ------------   -----------------  -----------------  -----------------  -----------------
      Gh(N)           6.279812100000    -4.253033720000     0.193138650000    14.003074004430
      Gh(N)           6.068707770000    -2.281256970000     1.805443170000    14.003074004430
      Gh(H)           3.668711560000    -5.646289410000    -1.966840010000     1.007825032230
      Gh(H)           0.690345210000    -2.375456940000    -0.428642360000     1.007825032230
      Gh(H)           3.359174420000     0.176506010000     3.092650170000     1.007825032230
      Gh(H)           7.352667820000    -1.994613110000     2.906807020000     1.007825032230
      Gh(C)           3.779525860000    -1.215084530000     1.768581720000    12.000000000000
      Gh(C)           2.382429980000    -2.555055380000     0.046076810000    12.000000000000
      Gh(C)           4.017714680000    -4.384104900000    -0.887618630000    12.000000000000
         N          -12.678718610000    26.188782440000    20.786530780000    14.003074004430
         N          -12.559856350000    28.226689470000    19.249357070000    14.003074004430
         H          -10.005555880000    23.787872470000    21.504561140000     1.007825032230
         H           -7.110919320000    26.230411210000    18.749423630000     1.007825032230
         H          -10.047343390000    29.943460230000    16.844787320000     1.007825032230
         H          -14.022264570000    29.036666530000    18.863591740000     1.007825032230
         C          -10.277019950000    28.556865140000    18.220308220000    12.000000000000
         C           -8.794027510000    26.627192920000    19.110230690000    12.000000000000
         C          -10.355332840000    25.242025110000    20.701928630000    12.000000000000

  Charge       = 0
  Multiplicity = 1
  Basis Set: AUG-CC-PVDZ
    Blend: AUG-CC-PVDZ
  Basis Set: (AUG-CC-PVDZ AUX)
    Blend: AUG-CC-PVDZ-JKFIT

    Orbital Energies [Eh]
    ---------------------

    Doubly Occupied:

       1A    -15.636233     2A    -15.592291     3A    -11.279903
       4A    -11.237759     5A    -11.209884     6A     -1.387001
       7A     -1.121894     8A     -1.066928     9A     -0.872759
      10A     -0.837039    11A     -0.757272    12A     -0.645745
      13A     -0.620828    14A     -0.609177    15A     -0.583905
      16A     -0.461413    17A     -0.370715    18A     -0.346055

  @DF-RHF Final Energy:  -224.76243506188248

   => Energetics <=

    Nuclear Repulsion Energy =            166.6286028673486328
    One-Electron Energy =                -633.5084735134392986
    Two-Electron Energy =                 242.1174355842082093
    Total Energy =                       -224.7624350618824849

  Dipole Moment: [D]
     X:     0.7394      Y:     1.4336      Z:    -1.7871     Total:     2.4074

    SAPT Results
  --------------------------------------------------------------------------------------------------------
    Electrostatics                 -0.00058851 [mEh]      -0.00036929 [kcal/mol]      -0.00154512 [kJ/mol]
      Elst10,r                     -0.00058851 [mEh]      -0.00036929 [kcal/mol]      -0.00154512 [kJ/mol]

    Exchange                        0.00000000 [mEh]       0.00000000 [kcal/mol]       0.00000000 [kJ/mol]
      Exch10                        0.00000000 [mEh]       0.00000000 [kcal/mol]       0.00000000 [kJ/mol]
      Exch10(S^2)                   0.00000000 [mEh]       0.00000000 [kcal/mol]       0.00000000 [kJ/mol]

    Induction                       0.00003974 [mEh]       0.00002494 [kcal/mol]       0.00010433 [kJ/mol]
      Ind20,r                      -0.00002746 [mEh]      -0.00001723 [kcal/mol]      -0.00007211 [kJ/mol]
      Exch-Ind20,r                  0.00000000 [mEh]       0.00000000 [kcal/mol]       0.00000000 [kJ/mol]
      delta HF,r (2)                0.00006720 [mEh]       0.00004217 [kcal/mol]       0.00017644 [kJ/mol]

    Dispersion                     -0.00037345 [mEh]      -0.00023434 [kcal/mol]      -0.00098049 [kJ/mol]
      Disp20                       -0.00037345 [mEh]      -0.00023434 [kcal/mol]      -0.00098049 [kJ/mol]
      Exch-Disp20                   0.00000000 [mEh]       0.00000000 [kcal/mol]       0.00000000 [kJ/mol]
      Disp20 (SS)                  -0.00018672 [mEh]      -0.00011717 [kcal/mol]      -0.00049024 [kJ/mol]
      Disp20 (OS)                  -0.00018672 [mEh]      -0.00011717 [kcal/mol]      -0.00049024 [kJ/mol]
      Exch-Disp20 (SS)              0.00000000 [mEh]       0.00000000 [kcal/mol]       0.00000000 [kJ/mol]
      Exch-Disp20 (OS)              0.00000000 [mEh]       0.00000000 [kcal/mol]       0.00000000 [kJ/mol]

  Total HF                         -0.00054877 [mEh]      -0.00034436 [kcal/mol]      -0.00144079 [kJ/mol]
  Total SAPT0                      -0.00092222 [mEh]      -0.00057870 [kcal/mol]      -0.00242128 [kJ/mol]

  Special recipe for scaled SAPT0 (see Manual):
    Electrostatics sSAPT0          -0.00058851 [mEh]      -0.00036929 [kcal/mol]      -0.00154512 [kJ/mol]
    Exchange sSAPT0                 0.00000000 [mEh]       0.00000000 [kcal/mol]       0.00000000 [kJ/mol]
    Induction sSAPT0                0.00003974 [mEh]       0.00002494 [kcal/mol]       0.00010433 [kJ/mol]
    Dispersion sSAPT0              -0.00037345 [mEh]      -0.00023434 [kcal/mol]      -0.00098049 [kJ/mol]
  Total sSAPT0                     -0.00092222 [mEh]      -0.00057870 [kcal/mol]      -0.00242128 [kJ/mol]
  --------------------------------------------------------------------------------------------------------

*** Psi4 exiting successfully. Buy a developer a beer!
