                               Psi4 1.4rc3

  ==> Input File <==

--------------------------------------------------------------------------
# PSI4 file produced by CrystaLattE

# Generated from:               pyrazole.xyz
# Psithon input for N-mer:      2mer-0+25
# Number of atoms per monomer:  [9, 9]
# Number of replicas:           2
# COM priority:                 1.464626873867e-04
# Minimum COM separations:      10.039
# Separation priority:          4.259554137013e-04
# Minimum monomer separations:  7.033
# Cutoff priority:              3.204932273095e-05
# Nuclear repulsion energy:     401.6103506654904

memory 7 GB

molecule Dimer_0_25 {
  N            6.27981210      -4.25303372       0.19313865
  N            6.06870777      -2.28125697       1.80544317
  H            3.66871156      -5.64628941      -1.96684001
  H            0.69034521      -2.37545694      -0.42864236
  H            3.35917442       0.17650601       3.09265017
  H            7.35266782      -1.99461311       2.90680702
  C            3.77952586      -1.21508453       1.76858172
  C            2.38242998      -2.55505538       0.04607681
  C            4.01771468      -4.38410490      -0.88761863
--
  N            6.27981210      16.25449114      -6.20641888
  N            6.06870777      14.28271439      -4.59411436
  H            3.66871156      17.64774683      -8.36639753
  H            0.69034521      14.37691436      -6.82819989
  H            3.35917442      11.82495140      -3.30690735
  H            7.35266782      13.99607052      -3.49275051
  C            3.77952586      13.21654194      -4.63097581
  C            2.38242998      14.55651280      -6.35348071
  C            4.01771468      16.38556231      -7.28717615
units = au
no_com
no_reorient
}

set {
  e_convergence 10
  d_convergence 10
  scf_type df
  mp2_type df
  cc_type df
  freeze_core true
}

energy('sapt0/aug-cc-pvdz')

--------------------------------------------------------------------------

  //              Dimer HF             //
    Molecular point group: c1
  Charge       = 0
  Multiplicity = 1
  Basis Set: AUG-CC-PVDZ
    Blend: AUG-CC-PVDZ
  Basis Set: (AUG-CC-PVDZ AUX)
    Blend: AUG-CC-PVDZ-JKFIT
  @DF-RHF Final Energy:  -449.52455857382660
    Total Energy =                       -449.5245585738265390
  //            Monomer A HF           //
    Molecular point group: c1
  Multiplicity = 1
  Basis Set: AUG-CC-PVDZ
    Blend: AUG-CC-PVDZ
  Basis Set: (AUG-CC-PVDZ AUX)
    Blend: AUG-CC-PVDZ-JKFIT
  @DF-RHF Final Energy:  -224.76235124731969
    Total Energy =                       -224.7623512473196854
  //            Monomer B HF           //
    Molecular point group: c1

    Geometry (in Bohr), charge = 0, multiplicity = 1:

       Center              X                  Y                   Z               Mass
    ------------   -----------------  -----------------  -----------------  -----------------
      Gh(N)           6.279812100000    -4.253033720000     0.193138650000    14.003074004430
      Gh(N)           6.068707770000    -2.281256970000     1.805443170000    14.003074004430
      Gh(H)           3.668711560000    -5.646289410000    -1.966840010000     1.007825032230
      Gh(H)           0.690345210000    -2.375456940000    -0.428642360000     1.007825032230
      Gh(H)           3.359174420000     0.176506010000     3.092650170000     1.007825032230
      Gh(H)           7.352667820000    -1.994613110000     2.906807020000     1.007825032230
      Gh(C)           3.779525860000    -1.215084530000     1.768581720000    12.000000000000
      Gh(C)           2.382429980000    -2.555055380000     0.046076810000    12.000000000000
      Gh(C)           4.017714680000    -4.384104900000    -0.887618630000    12.000000000000
         N            6.279812100000    16.254491140000    -6.206418880000    14.003074004430
         N            6.068707770000    14.282714390000    -4.594114360000    14.003074004430
         H            3.668711560000    17.647746830000    -8.366397530000     1.007825032230
         H            0.690345210000    14.376914360000    -6.828199890000     1.007825032230
         H            3.359174420000    11.824951400000    -3.306907350000     1.007825032230
         H            7.352667820000    13.996070520000    -3.492750510000     1.007825032230
         C            3.779525860000    13.216541940000    -4.630975810000    12.000000000000
         C            2.382429980000    14.556512800000    -6.353480710000    12.000000000000
         C            4.017714680000    16.385562310000    -7.287176150000    12.000000000000

  Charge       = 0
  Multiplicity = 1
  Basis Set: AUG-CC-PVDZ
    Blend: AUG-CC-PVDZ
  Basis Set: (AUG-CC-PVDZ AUX)
    Blend: AUG-CC-PVDZ-JKFIT

    Orbital Energies [Eh]
    ---------------------

    Doubly Occupied:

       1A    -15.636222     2A    -15.592314     3A    -11.279885
       4A    -11.237783     5A    -11.209890     6A     -1.386921
       7A     -1.121901     8A     -1.066898     9A     -0.872768
      10A     -0.837061    11A     -0.757293    12A     -0.645746
      13A     -0.620834    14A     -0.609139    15A     -0.583920
      16A     -0.461404    17A     -0.370720    18A     -0.346048

  @DF-RHF Final Energy:  -224.76235111532228

   => Energetics <=

    Nuclear Repulsion Energy =            166.6240564991750830
    One-Electron Energy =                -633.4993158805780240
    Two-Electron Energy =                 242.1129082660806660
    Total Energy =                       -224.7623511153222751

  Dipole Moment: [D]
     X:    -1.0236      Y:    -1.6055      Z:     1.4731     Total:     2.4074

    SAPT Results
  --------------------------------------------------------------------------------------------------------
    Electrostatics                  0.14622744 [mEh]       0.09175910 [kcal/mol]       0.38392008 [kJ/mol]
      Elst10,r                      0.14622744 [mEh]       0.09175910 [kcal/mol]       0.38392008 [kJ/mol]

    Exchange                        0.00000240 [mEh]       0.00000151 [kcal/mol]       0.00000630 [kJ/mol]
      Exch10                        0.00000240 [mEh]       0.00000151 [kcal/mol]       0.00000630 [kJ/mol]
      Exch10(S^2)                   0.00000240 [mEh]       0.00000151 [kcal/mol]       0.00000630 [kJ/mol]

    Induction                      -0.00244102 [mEh]      -0.00153176 [kcal/mol]      -0.00640890 [kJ/mol]
      Ind20,r                      -0.00272563 [mEh]      -0.00171036 [kcal/mol]      -0.00715613 [kJ/mol]
      Exch-Ind20,r                  0.00001322 [mEh]       0.00000830 [kcal/mol]       0.00003472 [kJ/mol]
      delta HF,r (2)                0.00027138 [mEh]       0.00017030 [kcal/mol]       0.00071252 [kJ/mol]

    Dispersion                     -0.03068021 [mEh]      -0.01925212 [kcal/mol]      -0.08055089 [kJ/mol]
      Disp20                       -0.03068224 [mEh]      -0.01925340 [kcal/mol]      -0.08055622 [kJ/mol]
      Exch-Disp20                   0.00000203 [mEh]       0.00000128 [kcal/mol]       0.00000534 [kJ/mol]
      Disp20 (SS)                  -0.01534112 [mEh]      -0.00962670 [kcal/mol]      -0.04027811 [kJ/mol]
      Disp20 (OS)                  -0.01534112 [mEh]      -0.00962670 [kcal/mol]      -0.04027811 [kJ/mol]
      Exch-Disp20 (SS)              0.00000171 [mEh]       0.00000107 [kcal/mol]       0.00000448 [kJ/mol]
      Exch-Disp20 (OS)              0.00000033 [mEh]       0.00000020 [kcal/mol]       0.00000086 [kJ/mol]

  Total HF                          0.14378882 [mEh]       0.09022884 [kcal/mol]       0.37751748 [kJ/mol]
  Total SAPT0                       0.11310860 [mEh]       0.07097672 [kcal/mol]       0.29696660 [kJ/mol]

  Special recipe for scaled SAPT0 (see Manual):
    Electrostatics sSAPT0           0.14622744 [mEh]       0.09175910 [kcal/mol]       0.38392008 [kJ/mol]
    Exchange sSAPT0                 0.00000240 [mEh]       0.00000151 [kcal/mol]       0.00000630 [kJ/mol]
    Induction sSAPT0               -0.00244102 [mEh]      -0.00153176 [kcal/mol]      -0.00640890 [kJ/mol]
    Dispersion sSAPT0              -0.03068021 [mEh]      -0.01925212 [kcal/mol]      -0.08055089 [kJ/mol]
  Total sSAPT0                      0.11310860 [mEh]       0.07097672 [kcal/mol]       0.29696660 [kJ/mol]
  --------------------------------------------------------------------------------------------------------

*** Psi4 exiting successfully. Buy a developer a beer!
