                               Psi4 1.4rc3

  ==> Input File <==

--------------------------------------------------------------------------
# PSI4 file produced by CrystaLattE

# Generated from:               pyrazole.xyz
# Psithon input for N-mer:      2mer-0+23
# Number of atoms per monomer:  [9, 9]
# Number of replicas:           1
# COM priority:                 1.312056227181e-04
# Minimum COM separations:      10.414
# Separation priority:          3.600079029142e-04
# Minimum monomer separations:  7.439
# Cutoff priority:              2.561038139034e-05
# Nuclear repulsion energy:     399.40500119535636

memory 7 GB

molecule Dimer_0_23 {
  N            6.27981210      -4.25303372       0.19313865
  N            6.06870777      -2.28125697       1.80544317
  H            3.66871156      -5.64628941      -1.96684001
  H            0.69034521      -2.37545694      -0.42864236
  H            3.35917442       0.17650601       3.09265017
  H            7.35266782      -1.99461311       2.90680702
  C            3.77952586      -1.21508453       1.76858172
  C            2.38242998      -2.55505538       0.04607681
  C            4.01771468      -4.38410490      -0.88761863
--
  N           -4.94029013      14.29484620      -1.54178140
  N           -4.82142787      16.33275324      -0.00460768
  H           -2.26712739      11.89393623      -2.25981175
  H            0.62750917      14.33647498       0.49532575
  H           -2.30891491      18.04952399       2.39996206
  H           -6.28383608      17.14273029       0.38115765
  C           -2.53859146      16.66292891       1.02444117
  C           -1.05559903      14.73325669       0.13451870
  C           -2.61690436      13.34808888      -1.45717925
units = au
no_com
no_reorient
}

set {
  e_convergence 10
  d_convergence 10
  scf_type df
  mp2_type df
  cc_type df
  freeze_core true
}

energy('sapt0/aug-cc-pvdz')

--------------------------------------------------------------------------

  //              Dimer HF             //
    Molecular point group: c1
  Charge       = 0
  Multiplicity = 1
  Basis Set: AUG-CC-PVDZ
    Blend: AUG-CC-PVDZ
  Basis Set: (AUG-CC-PVDZ AUX)
    Blend: AUG-CC-PVDZ-JKFIT
  @DF-RHF Final Energy:  -449.52479123134765
    Total Energy =                       -449.5247912313476490
  //            Monomer A HF           //
    Molecular point group: c1
  Multiplicity = 1
  Basis Set: AUG-CC-PVDZ
    Blend: AUG-CC-PVDZ
  Basis Set: (AUG-CC-PVDZ AUX)
    Blend: AUG-CC-PVDZ-JKFIT
  @DF-RHF Final Energy:  -224.76234797405056
    Total Energy =                       -224.7623479740505559
  //            Monomer B HF           //
    Molecular point group: c1

    Geometry (in Bohr), charge = 0, multiplicity = 1:

       Center              X                  Y                   Z               Mass
    ------------   -----------------  -----------------  -----------------  -----------------
      Gh(N)           6.279812100000    -4.253033720000     0.193138650000    14.003074004430
      Gh(N)           6.068707770000    -2.281256970000     1.805443170000    14.003074004430
      Gh(H)           3.668711560000    -5.646289410000    -1.966840010000     1.007825032230
      Gh(H)           0.690345210000    -2.375456940000    -0.428642360000     1.007825032230
      Gh(H)           3.359174420000     0.176506010000     3.092650170000     1.007825032230
      Gh(H)           7.352667820000    -1.994613110000     2.906807020000     1.007825032230
      Gh(C)           3.779525860000    -1.215084530000     1.768581720000    12.000000000000
      Gh(C)           2.382429980000    -2.555055380000     0.046076810000    12.000000000000
      Gh(C)           4.017714680000    -4.384104900000    -0.887618630000    12.000000000000
         N           -4.940290130000    14.294846200000    -1.541781400000    14.003074004430
         N           -4.821427870000    16.332753240000    -0.004607680000    14.003074004430
         H           -2.267127390000    11.893936230000    -2.259811750000     1.007825032230
         H            0.627509170000    14.336474980000     0.495325750000     1.007825032230
         H           -2.308914910000    18.049523990000     2.399962060000     1.007825032230
         H           -6.283836080000    17.142730290000     0.381157650000     1.007825032230
         C           -2.538591460000    16.662928910000     1.024441170000    12.000000000000
         C           -1.055599030000    14.733256690000     0.134518700000    12.000000000000
         C           -2.616904360000    13.348088880000    -1.457179250000    12.000000000000

  Charge       = 0
  Multiplicity = 1
  Basis Set: AUG-CC-PVDZ
    Blend: AUG-CC-PVDZ
  Basis Set: (AUG-CC-PVDZ AUX)
    Blend: AUG-CC-PVDZ-JKFIT

    Orbital Energies [Eh]
    ---------------------

    Doubly Occupied:

       1A    -15.636235     2A    -15.592291     3A    -11.279904
       4A    -11.237756     5A    -11.209884     6A     -1.387003
       7A     -1.121895     8A     -1.066929     9A     -0.872760
      10A     -0.837040    11A     -0.757274    12A     -0.645747
      13A     -0.620830    14A     -0.609178    15A     -0.583907
      16A     -0.461414    17A     -0.370716    18A     -0.346055

  @DF-RHF Final Energy:  -224.76244340716249

   => Energetics <=

    Nuclear Repulsion Energy =            166.6286026803319373
    One-Electron Energy =                -633.5084554488845470
    Two-Electron Energy =                 242.1174093613901164
    Total Energy =                       -224.7624434071624933

  Dipole Moment: [D]
     X:     0.7397      Y:     1.4336      Z:     1.7873     Total:     2.4076

    SAPT Results
  --------------------------------------------------------------------------------------------------------
    Electrostatics                  0.00085231 [mEh]       0.00053483 [kcal/mol]       0.00223773 [kJ/mol]
      Elst10,r                      0.00085231 [mEh]       0.00053483 [kcal/mol]       0.00223773 [kJ/mol]

    Exchange                        0.00000223 [mEh]       0.00000140 [kcal/mol]       0.00000585 [kJ/mol]
      Exch10                        0.00000223 [mEh]       0.00000140 [kcal/mol]       0.00000585 [kJ/mol]
      Exch10(S^2)                   0.00000223 [mEh]       0.00000140 [kcal/mol]       0.00000585 [kJ/mol]

    Induction                      -0.00070467 [mEh]      -0.00044219 [kcal/mol]      -0.00185011 [kJ/mol]
      Ind20,r                      -0.00091451 [mEh]      -0.00057386 [kcal/mol]      -0.00240104 [kJ/mol]
      Exch-Ind20,r                  0.00000972 [mEh]       0.00000610 [kcal/mol]       0.00002553 [kJ/mol]
      delta HF,r (2)                0.00020012 [mEh]       0.00012557 [kcal/mol]       0.00052540 [kJ/mol]

    Dispersion                     -0.02631738 [mEh]      -0.01651441 [kcal/mol]      -0.06909628 [kJ/mol]
      Disp20                       -0.02631862 [mEh]      -0.01651518 [kcal/mol]      -0.06909952 [kJ/mol]
      Exch-Disp20                   0.00000124 [mEh]       0.00000078 [kcal/mol]       0.00000325 [kJ/mol]
      Disp20 (SS)                  -0.01315931 [mEh]      -0.00825759 [kcal/mol]      -0.03454976 [kJ/mol]
      Disp20 (OS)                  -0.01315931 [mEh]      -0.00825759 [kcal/mol]      -0.03454976 [kJ/mol]
      Exch-Disp20 (SS)              0.00000104 [mEh]       0.00000065 [kcal/mol]       0.00000273 [kJ/mol]
      Exch-Disp20 (OS)              0.00000020 [mEh]       0.00000012 [kcal/mol]       0.00000051 [kJ/mol]

  Total HF                          0.00014987 [mEh]       0.00009404 [kcal/mol]       0.00039347 [kJ/mol]
  Total SAPT0                      -0.02616752 [mEh]      -0.01642036 [kcal/mol]      -0.06870281 [kJ/mol]

  Special recipe for scaled SAPT0 (see Manual):
    Electrostatics sSAPT0           0.00085231 [mEh]       0.00053483 [kcal/mol]       0.00223773 [kJ/mol]
    Exchange sSAPT0                 0.00000223 [mEh]       0.00000140 [kcal/mol]       0.00000585 [kJ/mol]
    Induction sSAPT0               -0.00070467 [mEh]      -0.00044219 [kcal/mol]      -0.00185011 [kJ/mol]
    Dispersion sSAPT0              -0.02631738 [mEh]      -0.01651441 [kcal/mol]      -0.06909628 [kJ/mol]
  Total sSAPT0                     -0.02616752 [mEh]      -0.01642036 [kcal/mol]      -0.06870281 [kJ/mol]
  --------------------------------------------------------------------------------------------------------

*** Psi4 exiting successfully. Buy a developer a beer!
