                               Psi4 1.4rc3

  ==> Input File <==

--------------------------------------------------------------------------
# PSI4 file produced by CrystaLattE

# Generated from:               pyrazole.xyz
# Psithon input for N-mer:      2mer-0+75
# Number of atoms per monomer:  [9, 9]
# Number of replicas:           2
# COM priority:                 5.315634335721e-05
# Minimum COM separations:      14.074
# Separation priority:          1.081961597317e-04
# Minimum monomer separations:  11.105
# Cutoff priority:              5.155638543867e-06
# Nuclear repulsion energy:     382.1643503843759

memory 7 GB

molecule Dimer_0_75 {
  N            6.27981210      -4.25303372       0.19313865
  N            6.06870777      -2.28125697       1.80544317
  H            3.66871156      -5.64628941      -1.96684001
  H            0.69034521      -2.37545694      -0.42864236
  H            3.35917442       0.17650601       3.09265017
  H            7.35266782      -1.99461311       2.90680702
  C            3.77952586      -1.21508453       1.76858172
  C            2.38242998      -2.55505538       0.04607681
  C            4.01771468      -4.38410490      -0.88761863
--
  N          -16.93547335       7.64090252       6.25249569
  N          -17.14657768       9.61267926       4.64019117
  H          -19.54657389       6.24764682       8.41247435
  H          -22.52494025       9.51847929       6.87427670
  H          -19.85611103      12.07044225       3.35298417
  H          -15.86261763       9.89932313       3.53882732
  C          -19.43575960      10.67885171       4.67705262
  C          -20.83285547       9.33888085       6.39955752
  C          -19.19757077       7.50983134       7.33325297
units = au
no_com
no_reorient
}

set {
  e_convergence 10
  d_convergence 10
  scf_type df
  mp2_type df
  cc_type df
  freeze_core true
}

energy('sapt0/aug-cc-pvdz')

--------------------------------------------------------------------------

  //              Dimer HF             //
    Molecular point group: c1
  Charge       = 0
  Multiplicity = 1
  Basis Set: AUG-CC-PVDZ
    Blend: AUG-CC-PVDZ
  Basis Set: (AUG-CC-PVDZ AUX)
    Blend: AUG-CC-PVDZ-JKFIT
  @DF-RHF Final Energy:  -449.52473261714698
    Total Energy =                       -449.5247326171470377
  //            Monomer A HF           //
    Molecular point group: c1
  Multiplicity = 1
  Basis Set: AUG-CC-PVDZ
    Blend: AUG-CC-PVDZ
  Basis Set: (AUG-CC-PVDZ AUX)
    Blend: AUG-CC-PVDZ-JKFIT
  @DF-RHF Final Energy:  -224.76233960700395
    Total Energy =                       -224.7623396070039519
  //            Monomer B HF           //
    Molecular point group: c1

    Geometry (in Bohr), charge = 0, multiplicity = 1:

       Center              X                  Y                   Z               Mass
    ------------   -----------------  -----------------  -----------------  -----------------
      Gh(N)           6.279812100000    -4.253033720000     0.193138650000    14.003074004430
      Gh(N)           6.068707770000    -2.281256970000     1.805443170000    14.003074004430
      Gh(H)           3.668711560000    -5.646289410000    -1.966840010000     1.007825032230
      Gh(H)           0.690345210000    -2.375456940000    -0.428642360000     1.007825032230
      Gh(H)           3.359174420000     0.176506010000     3.092650170000     1.007825032230
      Gh(H)           7.352667820000    -1.994613110000     2.906807020000     1.007825032230
      Gh(C)           3.779525860000    -1.215084530000     1.768581720000    12.000000000000
      Gh(C)           2.382429980000    -2.555055380000     0.046076810000    12.000000000000
      Gh(C)           4.017714680000    -4.384104900000    -0.887618630000    12.000000000000
         N          -16.935473350000     7.640902520000     6.252495690000    14.003074004430
         N          -17.146577680000     9.612679260000     4.640191170000    14.003074004430
         H          -19.546573890000     6.247646820000     8.412474350000     1.007825032230
         H          -22.524940250000     9.518479290000     6.874276700000     1.007825032230
         H          -19.856111030000    12.070442250000     3.352984170000     1.007825032230
         H          -15.862617630000     9.899323130000     3.538827320000     1.007825032230
         C          -19.435759600000    10.678851710000     4.677052620000    12.000000000000
         C          -20.832855470000     9.338880850000     6.399557520000    12.000000000000
         C          -19.197570770000     7.509831340000     7.333252970000    12.000000000000

  Charge       = 0
  Multiplicity = 1
  Basis Set: AUG-CC-PVDZ
    Blend: AUG-CC-PVDZ
  Basis Set: (AUG-CC-PVDZ AUX)
    Blend: AUG-CC-PVDZ-JKFIT

    Orbital Energies [Eh]
    ---------------------

    Doubly Occupied:

       1A    -15.636223     2A    -15.592313     3A    -11.279894
       4A    -11.237784     5A    -11.209891     6A     -1.386922
       7A     -1.121901     8A     -1.066898     9A     -0.872768
      10A     -0.837061    11A     -0.757292    12A     -0.645746
      13A     -0.620834    14A     -0.609140    15A     -0.583920
      16A     -0.461404    17A     -0.370721    18A     -0.346048

  @DF-RHF Final Energy:  -224.76233957382780

   => Energetics <=

    Nuclear Repulsion Energy =            166.6240564376193163
    One-Electron Energy =                -633.4992735880762211
    Two-Electron Energy =                 242.1128775766291312
    Total Energy =                       -224.7623395738278020

  Dipole Moment: [D]
     X:    -1.0235      Y:     1.6055      Z:    -1.4733     Total:     2.4075

    SAPT Results
  --------------------------------------------------------------------------------------------------------
    Electrostatics                 -0.05320773 [mEh]      -0.03338836 [kcal/mol]      -0.13969689 [kJ/mol]
      Elst10,r                     -0.05320773 [mEh]      -0.03338836 [kcal/mol]      -0.13969689 [kJ/mol]

    Exchange                        0.00000008 [mEh]       0.00000005 [kcal/mol]       0.00000021 [kJ/mol]
      Exch10                        0.00000008 [mEh]       0.00000005 [kcal/mol]       0.00000021 [kJ/mol]
      Exch10(S^2)                   0.00000008 [mEh]       0.00000005 [kcal/mol]       0.00000021 [kJ/mol]

    Induction                      -0.00022866 [mEh]      -0.00014349 [kcal/mol]      -0.00060035 [kJ/mol]
      Ind20,r                      -0.00032776 [mEh]      -0.00020567 [kcal/mol]      -0.00086053 [kJ/mol]
      Exch-Ind20,r                  0.00000017 [mEh]       0.00000010 [kcal/mol]       0.00000044 [kJ/mol]
      delta HF,r (2)                0.00009893 [mEh]       0.00006208 [kcal/mol]       0.00025974 [kJ/mol]

    Dispersion                     -0.00390557 [mEh]      -0.00245078 [kcal/mol]      -0.01025408 [kJ/mol]
      Disp20                       -0.00390558 [mEh]      -0.00245079 [kcal/mol]      -0.01025411 [kJ/mol]
      Exch-Disp20                   0.00000001 [mEh]       0.00000001 [kcal/mol]       0.00000003 [kJ/mol]
      Disp20 (SS)                  -0.00195279 [mEh]      -0.00122540 [kcal/mol]      -0.00512705 [kJ/mol]
      Disp20 (OS)                  -0.00195279 [mEh]      -0.00122540 [kcal/mol]      -0.00512705 [kJ/mol]
      Exch-Disp20 (SS)              0.00000001 [mEh]       0.00000001 [kcal/mol]       0.00000002 [kJ/mol]
      Exch-Disp20 (OS)              0.00000000 [mEh]       0.00000000 [kcal/mol]       0.00000001 [kJ/mol]

  Total HF                         -0.05343632 [mEh]      -0.03353179 [kcal/mol]      -0.14029703 [kJ/mol]
  Total SAPT0                      -0.05734189 [mEh]      -0.03598258 [kcal/mol]      -0.15055111 [kJ/mol]

  Special recipe for scaled SAPT0 (see Manual):
    Electrostatics sSAPT0          -0.05320773 [mEh]      -0.03338836 [kcal/mol]      -0.13969689 [kJ/mol]
    Exchange sSAPT0                 0.00000008 [mEh]       0.00000005 [kcal/mol]       0.00000021 [kJ/mol]
    Induction sSAPT0               -0.00022866 [mEh]      -0.00014349 [kcal/mol]      -0.00060035 [kJ/mol]
    Dispersion sSAPT0              -0.00390557 [mEh]      -0.00245078 [kcal/mol]      -0.01025408 [kJ/mol]
  Total sSAPT0                     -0.05734189 [mEh]      -0.03598258 [kcal/mol]      -0.15055111 [kJ/mol]
  --------------------------------------------------------------------------------------------------------

*** Psi4 exiting successfully. Buy a developer a beer!
