                               Psi4 1.4rc3

  ==> Input File <==

--------------------------------------------------------------------------
# PSI4 file produced by CrystaLattE

# Generated from:               pyrazole.xyz
# Psithon input for N-mer:      2mer-0+161
# Number of atoms per monomer:  [9, 9]
# Number of replicas:           1
# COM priority:                 7.037091169430e-05
# Minimum COM separations:      12.818
# Separation priority:          1.514073752624e-04
# Minimum monomer separations:  9.929
# Cutoff priority:              8.069798815993e-06
# Nuclear repulsion energy:     386.83748979483767

memory 7 GB

molecule Dimer_0_161 {
  N            6.27981210      -4.25303372       0.19313865
  N            6.06870777      -2.28125697       1.80544317
  H            3.66871156      -5.64628941      -1.96684001
  H            0.69034521      -2.37545694      -0.42864236
  H            3.35917442       0.17650601       3.09265017
  H            7.35266782      -1.99461311       2.90680702
  C            3.77952586      -1.21508453       1.76858172
  C            2.38242998      -2.55505538       0.04607681
  C            4.01771468      -4.38410490      -0.88761863
--
  N           18.27499532     -21.38696250       7.98741574
  N           18.39385758     -19.34905546       6.45024202
  H           20.94815806     -23.78787247       8.70544609
  H           23.84279462     -21.34533372       5.95030859
  H           20.90637054     -17.63228471       4.04567228
  H           16.93144937     -18.53907841       6.06447669
  C           20.67669399     -19.01887980       5.42119317
  C           22.15968642     -20.94855201       6.31111564
  C           20.59838109     -22.33371982       7.90281359
units = au
no_com
no_reorient
}

set {
  e_convergence 10
  d_convergence 10
  scf_type df
  mp2_type df
  cc_type df
  freeze_core true
}

energy('sapt0/aug-cc-pvdz')

--------------------------------------------------------------------------

  //              Dimer HF             //
    Molecular point group: c1
  Charge       = 0
  Multiplicity = 1
  Basis Set: AUG-CC-PVDZ
    Blend: AUG-CC-PVDZ
  Basis Set: (AUG-CC-PVDZ AUX)
    Blend: AUG-CC-PVDZ-JKFIT
  @DF-RHF Final Energy:  -449.52492243910910
    Total Energy =                       -449.5249224391091047
  //            Monomer A HF           //
    Molecular point group: c1
  Multiplicity = 1
  Basis Set: AUG-CC-PVDZ
    Blend: AUG-CC-PVDZ
  Basis Set: (AUG-CC-PVDZ AUX)
    Blend: AUG-CC-PVDZ-JKFIT
  @DF-RHF Final Energy:  -224.76233986754926
    Total Energy =                       -224.7623398675492581
  //            Monomer B HF           //
    Molecular point group: c1

    Geometry (in Bohr), charge = 0, multiplicity = 1:

       Center              X                  Y                   Z               Mass
    ------------   -----------------  -----------------  -----------------  -----------------
      Gh(N)           6.279812100000    -4.253033720000     0.193138650000    14.003074004430
      Gh(N)           6.068707770000    -2.281256970000     1.805443170000    14.003074004430
      Gh(H)           3.668711560000    -5.646289410000    -1.966840010000     1.007825032230
      Gh(H)           0.690345210000    -2.375456940000    -0.428642360000     1.007825032230
      Gh(H)           3.359174420000     0.176506010000     3.092650170000     1.007825032230
      Gh(H)           7.352667820000    -1.994613110000     2.906807020000     1.007825032230
      Gh(C)           3.779525860000    -1.215084530000     1.768581720000    12.000000000000
      Gh(C)           2.382429980000    -2.555055380000     0.046076810000    12.000000000000
      Gh(C)           4.017714680000    -4.384104900000    -0.887618630000    12.000000000000
         N           18.274995320000   -21.386962500000     7.987415740000    14.003074004430
         N           18.393857580000   -19.349055460000     6.450242020000    14.003074004430
         H           20.948158060000   -23.787872470000     8.705446090000     1.007825032230
         H           23.842794620000   -21.345333720000     5.950308590000     1.007825032230
         H           20.906370540000   -17.632284710000     4.045672280000     1.007825032230
         H           16.931449370000   -18.539078410000     6.064476690000     1.007825032230
         C           20.676693990000   -19.018879800000     5.421193170000    12.000000000000
         C           22.159686420000   -20.948552010000     6.311115640000    12.000000000000
         C           20.598381090000   -22.333719820000     7.902813590000    12.000000000000

  Charge       = 0
  Multiplicity = 1
  Basis Set: AUG-CC-PVDZ
    Blend: AUG-CC-PVDZ
  Basis Set: (AUG-CC-PVDZ AUX)
    Blend: AUG-CC-PVDZ-JKFIT

    Orbital Energies [Eh]
    ---------------------

    Doubly Occupied:

       1A    -15.636233     2A    -15.592291     3A    -11.279903
       4A    -11.237759     5A    -11.209884     6A     -1.387001
       7A     -1.121894     8A     -1.066928     9A     -0.872759
      10A     -0.837039    11A     -0.757272    12A     -0.645745
      13A     -0.620828    14A     -0.609177    15A     -0.583905
      16A     -0.461413    17A     -0.370715    18A     -0.346055

  @DF-RHF Final Energy:  -224.76243516471223

   => Energetics <=

    Nuclear Repulsion Energy =            166.6286027509845553
    One-Electron Energy =                -633.5084738722323436
    Two-Electron Energy =                 242.1174359565355587
    Total Energy =                       -224.7624351647122296

  Dipole Moment: [D]
     X:     0.7394      Y:     1.4336      Z:    -1.7871     Total:     2.4074

    SAPT Results
  --------------------------------------------------------------------------------------------------------
    Electrostatics                 -0.14649039 [mEh]      -0.09192411 [kcal/mol]      -0.38461047 [kJ/mol]
      Elst10,r                     -0.14649039 [mEh]      -0.09192411 [kcal/mol]      -0.38461047 [kJ/mol]

    Exchange                        0.00000006 [mEh]       0.00000004 [kcal/mol]       0.00000016 [kJ/mol]
      Exch10                        0.00000006 [mEh]       0.00000004 [kcal/mol]       0.00000016 [kJ/mol]
      Exch10(S^2)                   0.00000006 [mEh]       0.00000004 [kcal/mol]       0.00000016 [kJ/mol]

    Induction                      -0.00091652 [mEh]      -0.00057513 [kcal/mol]      -0.00240632 [kJ/mol]
      Ind20,r                      -0.00093696 [mEh]      -0.00058795 [kcal/mol]      -0.00245998 [kJ/mol]
      Exch-Ind20,r                  0.00000035 [mEh]       0.00000022 [kcal/mol]       0.00000091 [kJ/mol]
      delta HF,r (2)                0.00002009 [mEh]       0.00001261 [kcal/mol]       0.00005275 [kJ/mol]

    Dispersion                     -0.00645101 [mEh]      -0.00404807 [kcal/mol]      -0.01693714 [kJ/mol]
      Disp20                       -0.00645105 [mEh]      -0.00404810 [kcal/mol]      -0.01693723 [kJ/mol]
      Exch-Disp20                   0.00000004 [mEh]       0.00000002 [kcal/mol]       0.00000010 [kJ/mol]
      Disp20 (SS)                  -0.00322553 [mEh]      -0.00202405 [kcal/mol]      -0.00846862 [kJ/mol]
      Disp20 (OS)                  -0.00322553 [mEh]      -0.00202405 [kcal/mol]      -0.00846862 [kJ/mol]
      Exch-Disp20 (SS)              0.00000003 [mEh]       0.00000002 [kcal/mol]       0.00000008 [kJ/mol]
      Exch-Disp20 (OS)              0.00000001 [mEh]       0.00000000 [kcal/mol]       0.00000002 [kJ/mol]

  Total HF                         -0.14740685 [mEh]      -0.09249919 [kcal/mol]      -0.38701663 [kJ/mol]
  Total SAPT0                      -0.15385786 [mEh]      -0.09654727 [kcal/mol]      -0.40395376 [kJ/mol]

  Special recipe for scaled SAPT0 (see Manual):
    Electrostatics sSAPT0          -0.14649039 [mEh]      -0.09192411 [kcal/mol]      -0.38461047 [kJ/mol]
    Exchange sSAPT0                 0.00000006 [mEh]       0.00000004 [kcal/mol]       0.00000016 [kJ/mol]
    Induction sSAPT0               -0.00091652 [mEh]      -0.00057513 [kcal/mol]      -0.00240632 [kJ/mol]
    Dispersion sSAPT0              -0.00645101 [mEh]      -0.00404807 [kcal/mol]      -0.01693714 [kJ/mol]
  Total sSAPT0                     -0.15385786 [mEh]      -0.09654727 [kcal/mol]      -0.40395376 [kJ/mol]
  --------------------------------------------------------------------------------------------------------

*** Psi4 exiting successfully. Buy a developer a beer!
