                               Psi4 1.4rc3

  ==> Input File <==

--------------------------------------------------------------------------
# PSI4 file produced by CrystaLattE

# Generated from:               pyrazole.xyz
# Psithon input for N-mer:      2mer-0+73
# Number of atoms per monomer:  [9, 9]
# Number of replicas:           1
# COM priority:                 7.228284046002e-05
# Minimum COM separations:      12.703
# Separation priority:          1.160493552289e-04
# Minimum monomer separations:  10.849
# Cutoff priority:              5.660528427748e-06
# Nuclear repulsion energy:     387.0902058809413

memory 7 GB

molecule Dimer_0_73 {
  N            6.27981210      -4.25303372       0.19313865
  N            6.06870777      -2.28125697       1.80544317
  H            3.66871156      -5.64628941      -1.96684001
  H            0.69034521      -2.37545694      -0.42864236
  H            3.35917442       0.17650601       3.09265017
  H            7.35266782      -1.99461311       2.90680702
  C            3.77952586      -1.21508453       1.76858172
  C            2.38242998      -2.55505538       0.04607681
  C            4.01771468      -4.38410490      -0.88761863
--
  N           -4.94029013      14.29484620     -14.34089645
  N           -4.82142787      16.33275324     -12.80372273
  H           -2.26712739      11.89393623     -15.05892680
  H            0.62750917      14.33647498     -12.30378930
  H           -2.30891491      18.04952399     -10.39915299
  H           -6.28383608      17.14273029     -12.41795740
  C           -2.53859146      16.66292891     -11.77467388
  C           -1.05559903      14.73325669     -12.66459635
  C           -2.61690436      13.34808888     -14.25629430
units = au
no_com
no_reorient
}

set {
  e_convergence 10
  d_convergence 10
  scf_type df
  mp2_type df
  cc_type df
  freeze_core true
}

energy('sapt0/aug-cc-pvdz')

--------------------------------------------------------------------------

  //              Dimer HF             //
    Molecular point group: c1
  Charge       = 0
  Multiplicity = 1
  Basis Set: AUG-CC-PVDZ
    Blend: AUG-CC-PVDZ
  Basis Set: (AUG-CC-PVDZ AUX)
    Blend: AUG-CC-PVDZ-JKFIT
  @DF-RHF Final Energy:  -449.52476329885246
    Total Energy =                       -449.5247632988524629
  //            Monomer A HF           //
    Molecular point group: c1
  Multiplicity = 1
  Basis Set: AUG-CC-PVDZ
    Blend: AUG-CC-PVDZ
  Basis Set: (AUG-CC-PVDZ AUX)
    Blend: AUG-CC-PVDZ-JKFIT
  @DF-RHF Final Energy:  -224.76233974683259
    Total Energy =                       -224.7623397468325948
  //            Monomer B HF           //
    Molecular point group: c1

    Geometry (in Bohr), charge = 0, multiplicity = 1:

       Center              X                  Y                   Z               Mass
    ------------   -----------------  -----------------  -----------------  -----------------
      Gh(N)           6.279812100000    -4.253033720000     0.193138650000    14.003074004430
      Gh(N)           6.068707770000    -2.281256970000     1.805443170000    14.003074004430
      Gh(H)           3.668711560000    -5.646289410000    -1.966840010000     1.007825032230
      Gh(H)           0.690345210000    -2.375456940000    -0.428642360000     1.007825032230
      Gh(H)           3.359174420000     0.176506010000     3.092650170000     1.007825032230
      Gh(H)           7.352667820000    -1.994613110000     2.906807020000     1.007825032230
      Gh(C)           3.779525860000    -1.215084530000     1.768581720000    12.000000000000
      Gh(C)           2.382429980000    -2.555055380000     0.046076810000    12.000000000000
      Gh(C)           4.017714680000    -4.384104900000    -0.887618630000    12.000000000000
         N           -4.940290130000    14.294846200000   -14.340896450000    14.003074004430
         N           -4.821427870000    16.332753240000   -12.803722730000    14.003074004430
         H           -2.267127390000    11.893936230000   -15.058926800000     1.007825032230
         H            0.627509170000    14.336474980000   -12.303789300000     1.007825032230
         H           -2.308914910000    18.049523990000   -10.399152990000     1.007825032230
         H           -6.283836080000    17.142730290000   -12.417957400000     1.007825032230
         C           -2.538591460000    16.662928910000   -11.774673880000    12.000000000000
         C           -1.055599030000    14.733256690000   -12.664596350000    12.000000000000
         C           -2.616904360000    13.348088880000   -14.256294300000    12.000000000000

  Charge       = 0
  Multiplicity = 1
  Basis Set: AUG-CC-PVDZ
    Blend: AUG-CC-PVDZ
  Basis Set: (AUG-CC-PVDZ AUX)
    Blend: AUG-CC-PVDZ-JKFIT

    Orbital Energies [Eh]
    ---------------------

    Doubly Occupied:

       1A    -15.636233     2A    -15.592291     3A    -11.279903
       4A    -11.237759     5A    -11.209884     6A     -1.387001
       7A     -1.121894     8A     -1.066928     9A     -0.872759
      10A     -0.837039    11A     -0.757272    12A     -0.645745
      13A     -0.620828    14A     -0.609177    15A     -0.583905
      16A     -0.461413    17A     -0.370715    18A     -0.346055

  @DF-RHF Final Energy:  -224.76243529336890

   => Energetics <=

    Nuclear Repulsion Energy =            166.6286026803319373
    One-Electron Energy =                -633.5084751154060996
    Two-Electron Energy =                 242.1174371417052669
    Total Energy =                       -224.7624352933688954

  Dipole Moment: [D]
     X:     0.7394      Y:     1.4336      Z:     1.7871     Total:     2.4074

    SAPT Results
  --------------------------------------------------------------------------------------------------------
    Electrostatics                  0.01175361 [mEh]       0.00737550 [kcal/mol]       0.03085911 [kJ/mol]
      Elst10,r                      0.01175361 [mEh]       0.00737550 [kcal/mol]       0.03085911 [kJ/mol]

    Exchange                        0.00000057 [mEh]       0.00000036 [kcal/mol]       0.00000150 [kJ/mol]
      Exch10                        0.00000057 [mEh]       0.00000036 [kcal/mol]       0.00000150 [kJ/mol]
      Exch10(S^2)                   0.00000057 [mEh]       0.00000036 [kcal/mol]       0.00000150 [kJ/mol]

    Induction                      -0.00001284 [mEh]      -0.00000805 [kcal/mol]      -0.00003370 [kJ/mol]
      Ind20,r                      -0.00016740 [mEh]      -0.00010504 [kcal/mol]      -0.00043950 [kJ/mol]
      Exch-Ind20,r                  0.00000094 [mEh]       0.00000059 [kcal/mol]       0.00000247 [kJ/mol]
      delta HF,r (2)                0.00015362 [mEh]       0.00009640 [kcal/mol]       0.00040333 [kJ/mol]

    Dispersion                     -0.00604871 [mEh]      -0.00379562 [kcal/mol]      -0.01588087 [kJ/mol]
      Disp20                       -0.00604875 [mEh]      -0.00379565 [kcal/mol]      -0.01588100 [kJ/mol]
      Exch-Disp20                   0.00000005 [mEh]       0.00000003 [kcal/mol]       0.00000012 [kJ/mol]
      Disp20 (SS)                  -0.00302438 [mEh]      -0.00189782 [kcal/mol]      -0.00794050 [kJ/mol]
      Disp20 (OS)                  -0.00302438 [mEh]      -0.00189782 [kcal/mol]      -0.00794050 [kJ/mol]
      Exch-Disp20 (SS)              0.00000004 [mEh]       0.00000002 [kcal/mol]       0.00000010 [kJ/mol]
      Exch-Disp20 (OS)              0.00000001 [mEh]       0.00000001 [kcal/mol]       0.00000003 [kJ/mol]

  Total HF                          0.01174135 [mEh]       0.00736781 [kcal/mol]       0.03082691 [kJ/mol]
  Total SAPT0                       0.00569264 [mEh]       0.00357219 [kcal/mol]       0.01494603 [kJ/mol]

  Special recipe for scaled SAPT0 (see Manual):
    Electrostatics sSAPT0           0.01175361 [mEh]       0.00737550 [kcal/mol]       0.03085911 [kJ/mol]
    Exchange sSAPT0                 0.00000057 [mEh]       0.00000036 [kcal/mol]       0.00000150 [kJ/mol]
    Induction sSAPT0               -0.00001284 [mEh]      -0.00000805 [kcal/mol]      -0.00003370 [kJ/mol]
    Dispersion sSAPT0              -0.00604871 [mEh]      -0.00379562 [kcal/mol]      -0.01588087 [kJ/mol]
  Total sSAPT0                      0.00569264 [mEh]       0.00357219 [kcal/mol]       0.01494603 [kJ/mol]
  --------------------------------------------------------------------------------------------------------

*** Psi4 exiting successfully. Buy a developer a beer!
