                               Psi4 1.4rc3

  ==> Input File <==

--------------------------------------------------------------------------
# PSI4 file produced by CrystaLattE

# Generated from:               pyrazole.xyz
# Psithon input for N-mer:      2mer-0+68
# Number of atoms per monomer:  [9, 9]
# Number of replicas:           2
# COM priority:                 6.510968607746e-05
# Minimum COM separations:      13.154
# Separation priority:          1.361688681785e-04
# Minimum monomer separations:  10.286
# Cutoff priority:              7.005467192495e-06
# Nuclear repulsion energy:     385.2935073302566

memory 7 GB

molecule Dimer_0_68 {
  N            6.27981210      -4.25303372       0.19313865
  N            6.06870777      -2.28125697       1.80544317
  H            3.66871156      -5.64628941      -1.96684001
  H            0.69034521      -2.37545694      -0.42864236
  H            3.35917442       0.17650601       3.09265017
  H            7.35266782      -1.99461311       2.90680702
  C            3.77952586      -1.21508453       1.76858172
  C            2.38242998      -2.55505538       0.04607681
  C            4.01771468      -4.38410490      -0.88761863
--
  N           -1.45861638       7.64090252     -19.34573440
  N           -1.66972071       9.61267926     -20.95803893
  H           -4.06971692       6.24764682     -17.18575575
  H           -7.04808328       9.51847929     -18.72395339
  H           -4.37925406      12.07044225     -22.24524593
  H           -0.38576066       9.89932313     -22.05940278
  C           -3.95890263      10.67885171     -20.92117747
  C           -5.35599851       9.33888085     -19.19867257
  C           -3.72071380       7.50983134     -18.26497713
units = au
no_com
no_reorient
}

set {
  e_convergence 10
  d_convergence 10
  scf_type df
  mp2_type df
  cc_type df
  freeze_core true
}

energy('sapt0/aug-cc-pvdz')

--------------------------------------------------------------------------

  //              Dimer HF             //
    Molecular point group: c1
  Charge       = 0
  Multiplicity = 1
  Basis Set: AUG-CC-PVDZ
    Blend: AUG-CC-PVDZ
  Basis Set: (AUG-CC-PVDZ AUX)
    Blend: AUG-CC-PVDZ-JKFIT
  @DF-RHF Final Energy:  -449.52463358144519
    Total Energy =                       -449.5246335814451868
  //            Monomer A HF           //
    Molecular point group: c1
  Multiplicity = 1
  Basis Set: AUG-CC-PVDZ
    Blend: AUG-CC-PVDZ
  Basis Set: (AUG-CC-PVDZ AUX)
    Blend: AUG-CC-PVDZ-JKFIT
  @DF-RHF Final Energy:  -224.76234000401794
    Total Energy =                       -224.7623400040179433
  //            Monomer B HF           //
    Molecular point group: c1

    Geometry (in Bohr), charge = 0, multiplicity = 1:

       Center              X                  Y                   Z               Mass
    ------------   -----------------  -----------------  -----------------  -----------------
      Gh(N)           6.279812100000    -4.253033720000     0.193138650000    14.003074004430
      Gh(N)           6.068707770000    -2.281256970000     1.805443170000    14.003074004430
      Gh(H)           3.668711560000    -5.646289410000    -1.966840010000     1.007825032230
      Gh(H)           0.690345210000    -2.375456940000    -0.428642360000     1.007825032230
      Gh(H)           3.359174420000     0.176506010000     3.092650170000     1.007825032230
      Gh(H)           7.352667820000    -1.994613110000     2.906807020000     1.007825032230
      Gh(C)           3.779525860000    -1.215084530000     1.768581720000    12.000000000000
      Gh(C)           2.382429980000    -2.555055380000     0.046076810000    12.000000000000
      Gh(C)           4.017714680000    -4.384104900000    -0.887618630000    12.000000000000
         N           -1.458616380000     7.640902520000   -19.345734400000    14.003074004430
         N           -1.669720710000     9.612679260000   -20.958038930000    14.003074004430
         H           -4.069716920000     6.247646820000   -17.185755750000     1.007825032230
         H           -7.048083280000     9.518479290000   -18.723953390000     1.007825032230
         H           -4.379254060000    12.070442250000   -22.245245930000     1.007825032230
         H           -0.385760660000     9.899323130000   -22.059402780000     1.007825032230
         C           -3.958902630000    10.678851710000   -20.921177470000    12.000000000000
         C           -5.355998510000     9.338880850000   -19.198672570000    12.000000000000
         C           -3.720713800000     7.509831340000   -18.264977130000    12.000000000000

  Charge       = 0
  Multiplicity = 1
  Basis Set: AUG-CC-PVDZ
    Blend: AUG-CC-PVDZ
  Basis Set: (AUG-CC-PVDZ AUX)
    Blend: AUG-CC-PVDZ-JKFIT

    Orbital Energies [Eh]
    ---------------------

    Doubly Occupied:

       1A    -15.636223     2A    -15.592313     3A    -11.279894
       4A    -11.237783     5A    -11.209891     6A     -1.386922
       7A     -1.121901     8A     -1.066898     9A     -0.872768
      10A     -0.837061    11A     -0.757292    12A     -0.645746
      13A     -0.620834    14A     -0.609139    15A     -0.583920
      16A     -0.461404    17A     -0.370721    18A     -0.346047

  @DF-RHF Final Energy:  -224.76234013008241

   => Energetics <=

    Nuclear Repulsion Energy =            166.6240563347903958
    One-Electron Energy =                -633.4992789259363235
    Two-Electron Energy =                 242.1128824610635206
    Total Energy =                       -224.7623401300824071

  Dipole Moment: [D]
     X:    -1.0235      Y:     1.6055      Z:    -1.4732     Total:     2.4075

    SAPT Results
  --------------------------------------------------------------------------------------------------------
    Electrostatics                  0.04673691 [mEh]       0.02932785 [kcal/mol]       0.12270773 [kJ/mol]
      Elst10,r                      0.04673691 [mEh]       0.02932785 [kcal/mol]       0.12270773 [kJ/mol]

    Exchange                        0.00000132 [mEh]       0.00000083 [kcal/mol]       0.00000346 [kJ/mol]
      Exch10                        0.00000132 [mEh]       0.00000083 [kcal/mol]       0.00000346 [kJ/mol]
      Exch10(S^2)                   0.00000132 [mEh]       0.00000083 [kcal/mol]       0.00000346 [kJ/mol]

    Induction                      -0.00018557 [mEh]      -0.00011645 [kcal/mol]      -0.00048721 [kJ/mol]
      Ind20,r                      -0.00031743 [mEh]      -0.00019919 [kcal/mol]      -0.00083342 [kJ/mol]
      Exch-Ind20,r                  0.00000209 [mEh]       0.00000131 [kcal/mol]       0.00000549 [kJ/mol]
      delta HF,r (2)                0.00012977 [mEh]       0.00008143 [kcal/mol]       0.00034071 [kJ/mol]

    Dispersion                     -0.00528934 [mEh]      -0.00331911 [kcal/mol]      -0.01388715 [kJ/mol]
      Disp20                       -0.00528943 [mEh]      -0.00331916 [kcal/mol]      -0.01388739 [kJ/mol]
      Exch-Disp20                   0.00000009 [mEh]       0.00000006 [kcal/mol]       0.00000023 [kJ/mol]
      Disp20 (SS)                  -0.00264471 [mEh]      -0.00165958 [kcal/mol]      -0.00694369 [kJ/mol]
      Disp20 (OS)                  -0.00264471 [mEh]      -0.00165958 [kcal/mol]      -0.00694369 [kJ/mol]
      Exch-Disp20 (SS)              0.00000007 [mEh]       0.00000004 [kcal/mol]       0.00000018 [kJ/mol]
      Exch-Disp20 (OS)              0.00000002 [mEh]       0.00000001 [kcal/mol]       0.00000005 [kJ/mol]

  Total HF                          0.04655266 [mEh]       0.02921223 [kcal/mol]       0.12222398 [kJ/mol]
  Total SAPT0                       0.04126332 [mEh]       0.02589312 [kcal/mol]       0.10833683 [kJ/mol]

  Special recipe for scaled SAPT0 (see Manual):
    Electrostatics sSAPT0           0.04673691 [mEh]       0.02932785 [kcal/mol]       0.12270773 [kJ/mol]
    Exchange sSAPT0                 0.00000132 [mEh]       0.00000083 [kcal/mol]       0.00000346 [kJ/mol]
    Induction sSAPT0               -0.00018557 [mEh]      -0.00011645 [kcal/mol]      -0.00048721 [kJ/mol]
    Dispersion sSAPT0              -0.00528934 [mEh]      -0.00331911 [kcal/mol]      -0.01388715 [kJ/mol]
  Total sSAPT0                      0.04126332 [mEh]       0.02589312 [kcal/mol]       0.10833683 [kJ/mol]
  --------------------------------------------------------------------------------------------------------

*** Psi4 exiting successfully. Buy a developer a beer!
