                               Psi4 1.4rc3

  ==> Input File <==

--------------------------------------------------------------------------
# PSI4 file produced by CrystaLattE

# Generated from:               pyrazole.xyz
# Psithon input for N-mer:      2mer-0+210
# Number of atoms per monomer:  [9, 9]
# Number of replicas:           2
# COM priority:                 3.314140653730e-05
# Minimum COM separations:      16.474
# Separation priority:          6.680967492926e-05
# Minimum monomer separations:  13.041
# Cutoff priority:              2.710935251058e-06
# Nuclear repulsion energy:     374.97059749042216

memory 7 GB

molecule Dimer_0_210 {
  N            6.27981210      -4.25303372       0.19313865
  N            6.06870777      -2.28125697       1.80544317
  H            3.66871156      -5.64628941      -1.96684001
  H            0.69034521      -2.37545694      -0.42864236
  H            3.35917442       0.17650601       3.09265017
  H            7.35266782      -1.99461311       2.90680702
  C            3.77952586      -1.21508453       1.76858172
  C            2.38242998      -2.55505538       0.04607681
  C            4.01771468      -4.38410490      -0.88761863
--
  N           -9.19704487     -28.04090619     -12.60597640
  N           -9.40814920     -26.06912944     -10.99367188
  H          -11.80814541     -29.43416188     -14.76595506
  H          -14.78651176     -26.16332941     -13.22775741
  H          -12.11768255     -23.61136645      -9.70646488
  H           -8.12418914     -25.78248557      -9.89230803
  C          -11.69733111     -25.00295699     -11.03053333
  C          -13.09442699     -26.34292785     -12.75303823
  C          -11.45914228     -28.17197736     -13.68673368
units = au
no_com
no_reorient
}

set {
  e_convergence 10
  d_convergence 10
  scf_type df
  mp2_type df
  cc_type df
  freeze_core true
}

energy('sapt0/aug-cc-pvdz')

--------------------------------------------------------------------------

  //              Dimer HF             //
    Molecular point group: c1
  Charge       = 0
  Multiplicity = 1
  Basis Set: AUG-CC-PVDZ
    Blend: AUG-CC-PVDZ
  Basis Set: (AUG-CC-PVDZ AUX)
    Blend: AUG-CC-PVDZ-JKFIT
  @DF-RHF Final Energy:  -449.52467368003647
    Total Energy =                       -449.5246736800364715
  //            Monomer A HF           //
    Molecular point group: c1
  Multiplicity = 1
  Basis Set: AUG-CC-PVDZ
    Blend: AUG-CC-PVDZ
  Basis Set: (AUG-CC-PVDZ AUX)
    Blend: AUG-CC-PVDZ-JKFIT
  @DF-RHF Final Energy:  -224.76233952241424
    Total Energy =                       -224.7623395224142371
  //            Monomer B HF           //
    Molecular point group: c1

    Geometry (in Bohr), charge = 0, multiplicity = 1:

       Center              X                  Y                   Z               Mass
    ------------   -----------------  -----------------  -----------------  -----------------
      Gh(N)           6.279812100000    -4.253033720000     0.193138650000    14.003074004430
      Gh(N)           6.068707770000    -2.281256970000     1.805443170000    14.003074004430
      Gh(H)           3.668711560000    -5.646289410000    -1.966840010000     1.007825032230
      Gh(H)           0.690345210000    -2.375456940000    -0.428642360000     1.007825032230
      Gh(H)           3.359174420000     0.176506010000     3.092650170000     1.007825032230
      Gh(H)           7.352667820000    -1.994613110000     2.906807020000     1.007825032230
      Gh(C)           3.779525860000    -1.215084530000     1.768581720000    12.000000000000
      Gh(C)           2.382429980000    -2.555055380000     0.046076810000    12.000000000000
      Gh(C)           4.017714680000    -4.384104900000    -0.887618630000    12.000000000000
         N           -9.197044870000   -28.040906190000   -12.605976400000    14.003074004430
         N           -9.408149200000   -26.069129440000   -10.993671880000    14.003074004430
         H          -11.808145410000   -29.434161880000   -14.765955060000     1.007825032230
         H          -14.786511760000   -26.163329410000   -13.227757410000     1.007825032230
         H          -12.117682550000   -23.611366450000    -9.706464880000     1.007825032230
         H           -8.124189140000   -25.782485570000    -9.892308030000     1.007825032230
         C          -11.697331110000   -25.002956990000   -11.030533330000    12.000000000000
         C          -13.094426990000   -26.342927850000   -12.753038230000    12.000000000000
         C          -11.459142280000   -28.171977360000   -13.686733680000    12.000000000000

  Charge       = 0
  Multiplicity = 1
  Basis Set: AUG-CC-PVDZ
    Blend: AUG-CC-PVDZ
  Basis Set: (AUG-CC-PVDZ AUX)
    Blend: AUG-CC-PVDZ-JKFIT

    Orbital Energies [Eh]
    ---------------------

    Doubly Occupied:

       1A    -15.636223     2A    -15.592313     3A    -11.279894
       4A    -11.237784     5A    -11.209891     6A     -1.386922
       7A     -1.121901     8A     -1.066898     9A     -0.872768
      10A     -0.837061    11A     -0.757292    12A     -0.645746
      13A     -0.620834    14A     -0.609140    15A     -0.583920
      16A     -0.461404    17A     -0.370721    18A     -0.346048

  @DF-RHF Final Energy:  -224.76233952694156

   => Energetics <=

    Nuclear Repulsion Energy =            166.6240564331926635
    One-Electron Energy =                -633.4992733826543372
    Two-Electron Energy =                 242.1128774225201141
    Total Energy =                       -224.7623395269415596

  Dipole Moment: [D]
     X:    -1.0235      Y:     1.6055      Z:     1.4733     Total:     2.4075

    SAPT Results
  --------------------------------------------------------------------------------------------------------
    Electrostatics                  0.00540493 [mEh]       0.00339164 [kcal/mol]       0.01419063 [kJ/mol]
      Elst10,r                      0.00540493 [mEh]       0.00339164 [kcal/mol]       0.01419063 [kJ/mol]

    Exchange                        0.00000000 [mEh]       0.00000000 [kcal/mol]       0.00000001 [kJ/mol]
      Exch10                        0.00000000 [mEh]       0.00000000 [kcal/mol]       0.00000001 [kJ/mol]
      Exch10(S^2)                   0.00000000 [mEh]       0.00000000 [kcal/mol]       0.00000001 [kJ/mol]

    Induction                      -0.00003561 [mEh]      -0.00002235 [kcal/mol]      -0.00009350 [kJ/mol]
      Ind20,r                      -0.00010191 [mEh]      -0.00006395 [kcal/mol]      -0.00026757 [kJ/mol]
      Exch-Ind20,r                  0.00000000 [mEh]       0.00000000 [kcal/mol]       0.00000001 [kJ/mol]
      delta HF,r (2)                0.00006630 [mEh]       0.00004160 [kcal/mol]       0.00017406 [kJ/mol]

    Dispersion                     -0.00145769 [mEh]      -0.00091472 [kcal/mol]      -0.00382717 [kJ/mol]
      Disp20                       -0.00145769 [mEh]      -0.00091472 [kcal/mol]      -0.00382717 [kJ/mol]
      Exch-Disp20                   0.00000000 [mEh]       0.00000000 [kcal/mol]       0.00000000 [kJ/mol]
      Disp20 (SS)                  -0.00072885 [mEh]      -0.00045736 [kcal/mol]      -0.00191359 [kJ/mol]
      Disp20 (OS)                  -0.00072885 [mEh]      -0.00045736 [kcal/mol]      -0.00191359 [kJ/mol]
      Exch-Disp20 (SS)              0.00000000 [mEh]       0.00000000 [kcal/mol]       0.00000000 [kJ/mol]
      Exch-Disp20 (OS)              0.00000000 [mEh]       0.00000000 [kcal/mol]       0.00000000 [kJ/mol]

  Total HF                          0.00536932 [mEh]       0.00336930 [kcal/mol]       0.01409715 [kJ/mol]
  Total SAPT0                       0.00391163 [mEh]       0.00245458 [kcal/mol]       0.01026998 [kJ/mol]

  Special recipe for scaled SAPT0 (see Manual):
    Electrostatics sSAPT0           0.00540493 [mEh]       0.00339164 [kcal/mol]       0.01419063 [kJ/mol]
    Exchange sSAPT0                 0.00000000 [mEh]       0.00000000 [kcal/mol]       0.00000001 [kJ/mol]
    Induction sSAPT0               -0.00003561 [mEh]      -0.00002235 [kcal/mol]      -0.00009350 [kJ/mol]
    Dispersion sSAPT0              -0.00145769 [mEh]      -0.00091472 [kcal/mol]      -0.00382717 [kJ/mol]
  Total sSAPT0                      0.00391163 [mEh]       0.00245458 [kcal/mol]       0.01026998 [kJ/mol]
  --------------------------------------------------------------------------------------------------------

*** Psi4 exiting successfully. Buy a developer a beer!
