                               Psi4 1.4rc3

  ==> Input File <==

--------------------------------------------------------------------------
# PSI4 file produced by CrystaLattE

# Generated from:               pyrazole.xyz
# Psithon input for N-mer:      2mer-0+419
# Number of atoms per monomer:  [9, 9]
# Number of replicas:           2
# COM priority:                 1.267952908001e-05
# Minimum COM separations:      22.693
# Separation priority:          1.911954570434e-05
# Minimum monomer separations:  19.790
# Cutoff priority:              5.112540466180e-07
# Nuclear repulsion energy:     363.4967777152046

memory 7 GB

molecule Dimer_0_419 {
  N            6.27981210      -4.25303372       0.19313865
  N            6.06870777      -2.28125697       1.80544317
  H            3.66871156      -5.64628941      -1.96684001
  H            0.69034521      -2.37545694      -0.42864236
  H            3.35917442       0.17650601       3.09265017
  H            7.35266782      -1.99461311       2.90680702
  C            3.77952586      -1.21508453       1.76858172
  C            2.38242998      -2.55505538       0.04607681
  C            4.01771468      -4.38410490      -0.88761863
--
  N          -16.93547335      31.42877498       6.25249569
  N          -17.14657768      33.40055173       4.64019117
  H          -19.54657389      30.03551929       8.41247435
  H          -22.52494025      33.30635176       6.87427670
  H          -19.85611103      35.85831471       3.35298417
  H          -15.86261763      33.68719559       3.53882732
  C          -19.43575960      34.46672418       4.67705262
  C          -20.83285547      33.12675332       6.39955752
  C          -19.19757077      31.29770381       7.33325297
units = au
no_com
no_reorient
}

set {
  e_convergence 10
  d_convergence 10
  scf_type df
  mp2_type df
  cc_type df
  freeze_core true
}

energy('sapt0/aug-cc-pvdz')

--------------------------------------------------------------------------

  //              Dimer HF             //
    Molecular point group: c1
  Charge       = 0
  Multiplicity = 1
  Basis Set: AUG-CC-PVDZ
    Blend: AUG-CC-PVDZ
  Basis Set: (AUG-CC-PVDZ AUX)
    Blend: AUG-CC-PVDZ-JKFIT
  @DF-RHF Final Energy:  -449.52469899193716
    Total Energy =                       -449.5246989919371572
  //            Monomer A HF           //
    Molecular point group: c1
  Multiplicity = 1
  Basis Set: AUG-CC-PVDZ
    Blend: AUG-CC-PVDZ
  Basis Set: (AUG-CC-PVDZ AUX)
    Blend: AUG-CC-PVDZ-JKFIT
  @DF-RHF Final Energy:  -224.76233952055526
    Total Energy =                       -224.7623395205552583
  //            Monomer B HF           //
    Molecular point group: c1

    Geometry (in Bohr), charge = 0, multiplicity = 1:

       Center              X                  Y                   Z               Mass
    ------------   -----------------  -----------------  -----------------  -----------------
      Gh(N)           6.279812100000    -4.253033720000     0.193138650000    14.003074004430
      Gh(N)           6.068707770000    -2.281256970000     1.805443170000    14.003074004430
      Gh(H)           3.668711560000    -5.646289410000    -1.966840010000     1.007825032230
      Gh(H)           0.690345210000    -2.375456940000    -0.428642360000     1.007825032230
      Gh(H)           3.359174420000     0.176506010000     3.092650170000     1.007825032230
      Gh(H)           7.352667820000    -1.994613110000     2.906807020000     1.007825032230
      Gh(C)           3.779525860000    -1.215084530000     1.768581720000    12.000000000000
      Gh(C)           2.382429980000    -2.555055380000     0.046076810000    12.000000000000
      Gh(C)           4.017714680000    -4.384104900000    -0.887618630000    12.000000000000
         N          -16.935473350000    31.428774980000     6.252495690000    14.003074004430
         N          -17.146577680000    33.400551730000     4.640191170000    14.003074004430
         H          -19.546573890000    30.035519290000     8.412474350000     1.007825032230
         H          -22.524940250000    33.306351760000     6.874276700000     1.007825032230
         H          -19.856111030000    35.858314710000     3.352984170000     1.007825032230
         H          -15.862617630000    33.687195590000     3.538827320000     1.007825032230
         C          -19.435759600000    34.466724180000     4.677052620000    12.000000000000
         C          -20.832855470000    33.126753320000     6.399557520000    12.000000000000
         C          -19.197570770000    31.297703810000     7.333252970000    12.000000000000

  Charge       = 0
  Multiplicity = 1
  Basis Set: AUG-CC-PVDZ
    Blend: AUG-CC-PVDZ
  Basis Set: (AUG-CC-PVDZ AUX)
    Blend: AUG-CC-PVDZ-JKFIT

    Orbital Energies [Eh]
    ---------------------

    Doubly Occupied:

       1A    -15.636223     2A    -15.592313     3A    -11.279894
       4A    -11.237784     5A    -11.209891     6A     -1.386922
       7A     -1.121901     8A     -1.066898     9A     -0.872768
      10A     -0.837061    11A     -0.757292    12A     -0.645746
      13A     -0.620834    14A     -0.609140    15A     -0.583920
      16A     -0.461404    17A     -0.370721    18A     -0.346048

  @DF-RHF Final Energy:  -224.76233952386409

   => Energetics <=

    Nuclear Repulsion Energy =            166.6240563804641681
    One-Electron Energy =                -633.4992732612797681
    Two-Electron Energy =                 242.1128773569515431
    Total Energy =                       -224.7623395238640853

  Dipole Moment: [D]
     X:    -1.0235      Y:     1.6055      Z:    -1.4733     Total:     2.4075

    SAPT Results
  --------------------------------------------------------------------------------------------------------
    Electrostatics                 -0.01998298 [mEh]      -0.01253951 [kcal/mol]      -0.05246530 [kJ/mol]
      Elst10,r                     -0.01998298 [mEh]      -0.01253951 [kcal/mol]      -0.05246530 [kJ/mol]

    Exchange                        0.00000000 [mEh]       0.00000000 [kcal/mol]       0.00000000 [kJ/mol]
      Exch10                        0.00000000 [mEh]       0.00000000 [kcal/mol]       0.00000000 [kJ/mol]
      Exch10(S^2)                   0.00000000 [mEh]       0.00000000 [kcal/mol]       0.00000000 [kJ/mol]

    Induction                       0.00003546 [mEh]       0.00002225 [kcal/mol]       0.00009310 [kJ/mol]
      Ind20,r                      -0.00002255 [mEh]      -0.00001415 [kcal/mol]      -0.00005919 [kJ/mol]
      Exch-Ind20,r                  0.00000000 [mEh]       0.00000000 [kcal/mol]       0.00000000 [kJ/mol]
      delta HF,r (2)                0.00005800 [mEh]       0.00003640 [kcal/mol]       0.00015229 [kJ/mol]

    Dispersion                     -0.00019746 [mEh]      -0.00012391 [kcal/mol]      -0.00051842 [kJ/mol]
      Disp20                       -0.00019746 [mEh]      -0.00012391 [kcal/mol]      -0.00051842 [kJ/mol]
      Exch-Disp20                   0.00000000 [mEh]       0.00000000 [kcal/mol]       0.00000000 [kJ/mol]
      Disp20 (SS)                  -0.00009873 [mEh]      -0.00006195 [kcal/mol]      -0.00025921 [kJ/mol]
      Disp20 (OS)                  -0.00009873 [mEh]      -0.00006195 [kcal/mol]      -0.00025921 [kJ/mol]
      Exch-Disp20 (SS)              0.00000000 [mEh]       0.00000000 [kcal/mol]       0.00000000 [kJ/mol]
      Exch-Disp20 (OS)              0.00000000 [mEh]       0.00000000 [kcal/mol]       0.00000000 [kJ/mol]

  Total HF                         -0.01994752 [mEh]      -0.01251726 [kcal/mol]      -0.05237220 [kJ/mol]
  Total SAPT0                      -0.02014498 [mEh]      -0.01264116 [kcal/mol]      -0.05289063 [kJ/mol]

  Special recipe for scaled SAPT0 (see Manual):
    Electrostatics sSAPT0          -0.01998298 [mEh]      -0.01253951 [kcal/mol]      -0.05246530 [kJ/mol]
    Exchange sSAPT0                 0.00000000 [mEh]       0.00000000 [kcal/mol]       0.00000000 [kJ/mol]
    Induction sSAPT0                0.00003546 [mEh]       0.00002225 [kcal/mol]       0.00009310 [kJ/mol]
    Dispersion sSAPT0              -0.00019746 [mEh]      -0.00012391 [kcal/mol]      -0.00051842 [kJ/mol]
  Total sSAPT0                     -0.02014498 [mEh]      -0.01264116 [kcal/mol]      -0.05289063 [kJ/mol]
  --------------------------------------------------------------------------------------------------------

*** Psi4 exiting successfully. Buy a developer a beer!
