                               Psi4 1.4rc3

  ==> Input File <==

--------------------------------------------------------------------------
# PSI4 file produced by CrystaLattE

# Generated from:               pyrazole.xyz
# Psithon input for N-mer:      2mer-0+96
# Number of atoms per monomer:  [9, 9]
# Number of replicas:           2
# COM priority:                 5.315634335721e-05
# Minimum COM separations:      14.074
# Separation priority:          1.152337388882e-04
# Minimum monomer separations:  10.874
# Cutoff priority:              5.607546337778e-06
# Nuclear repulsion energy:     382.0005010536155

memory 7 GB

molecule Dimer_0_96 {
  N            6.27981210      -4.25303372       0.19313865
  N            6.06870777      -2.28125697       1.80544317
  H            3.66871156      -5.64628941      -1.96684001
  H            0.69034521      -2.37545694      -0.42864236
  H            3.35917442       0.17650601       3.09265017
  H            7.35266782      -1.99461311       2.90680702
  C            3.77952586      -1.21508453       1.76858172
  C            2.38242998      -2.55505538       0.04607681
  C            4.01771468      -4.38410490      -0.88761863
--
  N          -16.93547335     -16.14696995       6.25249569
  N          -17.14657768     -14.17519320       4.64019117
  H          -19.54657389     -17.54022564       8.41247435
  H          -22.52494025     -14.26939318       6.87427670
  H          -19.85611103     -11.71743022       3.35298417
  H          -15.86261763     -13.88854934       3.53882732
  C          -19.43575960     -13.10902076       4.67705262
  C          -20.83285547     -14.44899162       6.39955752
  C          -19.19757077     -16.27804113       7.33325297
units = au
no_com
no_reorient
}

set {
  e_convergence 10
  d_convergence 10
  scf_type df
  mp2_type df
  cc_type df
  freeze_core true
}

energy('sapt0/aug-cc-pvdz')

--------------------------------------------------------------------------

  //              Dimer HF             //
    Molecular point group: c1
  Charge       = 0
  Multiplicity = 1
  Basis Set: AUG-CC-PVDZ
    Blend: AUG-CC-PVDZ
  Basis Set: (AUG-CC-PVDZ AUX)
    Blend: AUG-CC-PVDZ-JKFIT
  @DF-RHF Final Energy:  -449.52465185510431
    Total Energy =                       -449.5246518551043664
  //            Monomer A HF           //
    Molecular point group: c1
  Multiplicity = 1
  Basis Set: AUG-CC-PVDZ
    Blend: AUG-CC-PVDZ
  Basis Set: (AUG-CC-PVDZ AUX)
    Blend: AUG-CC-PVDZ-JKFIT
  @DF-RHF Final Energy:  -224.76233962161808
    Total Energy =                       -224.7623396216180822
  //            Monomer B HF           //
    Molecular point group: c1

    Geometry (in Bohr), charge = 0, multiplicity = 1:

       Center              X                  Y                   Z               Mass
    ------------   -----------------  -----------------  -----------------  -----------------
      Gh(N)           6.279812100000    -4.253033720000     0.193138650000    14.003074004430
      Gh(N)           6.068707770000    -2.281256970000     1.805443170000    14.003074004430
      Gh(H)           3.668711560000    -5.646289410000    -1.966840010000     1.007825032230
      Gh(H)           0.690345210000    -2.375456940000    -0.428642360000     1.007825032230
      Gh(H)           3.359174420000     0.176506010000     3.092650170000     1.007825032230
      Gh(H)           7.352667820000    -1.994613110000     2.906807020000     1.007825032230
      Gh(C)           3.779525860000    -1.215084530000     1.768581720000    12.000000000000
      Gh(C)           2.382429980000    -2.555055380000     0.046076810000    12.000000000000
      Gh(C)           4.017714680000    -4.384104900000    -0.887618630000    12.000000000000
         N          -16.935473350000   -16.146969950000     6.252495690000    14.003074004430
         N          -17.146577680000   -14.175193200000     4.640191170000    14.003074004430
         H          -19.546573890000   -17.540225640000     8.412474350000     1.007825032230
         H          -22.524940250000   -14.269393180000     6.874276700000     1.007825032230
         H          -19.856111030000   -11.717430220000     3.352984170000     1.007825032230
         H          -15.862617630000   -13.888549340000     3.538827320000     1.007825032230
         C          -19.435759600000   -13.109020760000     4.677052620000    12.000000000000
         C          -20.832855470000   -14.448991620000     6.399557520000    12.000000000000
         C          -19.197570770000   -16.278041130000     7.333252970000    12.000000000000

  Charge       = 0
  Multiplicity = 1
  Basis Set: AUG-CC-PVDZ
    Blend: AUG-CC-PVDZ
  Basis Set: (AUG-CC-PVDZ AUX)
    Blend: AUG-CC-PVDZ-JKFIT

    Orbital Energies [Eh]
    ---------------------

    Doubly Occupied:

       1A    -15.636223     2A    -15.592314     3A    -11.279894
       4A    -11.237784     5A    -11.209891     6A     -1.386922
       7A     -1.121901     8A     -1.066898     9A     -0.872768
      10A     -0.837061    11A     -0.757292    12A     -0.645746
      13A     -0.620834    14A     -0.609140    15A     -0.583920
      16A     -0.461404    17A     -0.370721    18A     -0.346048

  @DF-RHF Final Energy:  -224.76233956018623

   => Energetics <=

    Nuclear Repulsion Energy =            166.6240564213031234
    One-Electron Energy =                -633.4992734932839085
    Two-Electron Energy =                 242.1128775117945509
    Total Energy =                       -224.7623395601862342

  Dipole Moment: [D]
     X:    -1.0235      Y:     1.6055      Z:    -1.4733     Total:     2.4075

    SAPT Results
  --------------------------------------------------------------------------------------------------------
    Electrostatics                  0.02742368 [mEh]       0.01720862 [kcal/mol]       0.07200087 [kJ/mol]
      Elst10,r                      0.02742368 [mEh]       0.01720862 [kcal/mol]       0.07200087 [kJ/mol]

    Exchange                        0.00000005 [mEh]       0.00000003 [kcal/mol]       0.00000013 [kJ/mol]
      Exch10                        0.00000005 [mEh]       0.00000003 [kcal/mol]       0.00000013 [kJ/mol]
      Exch10(S^2)                   0.00000005 [mEh]       0.00000003 [kcal/mol]       0.00000013 [kJ/mol]

    Induction                      -0.00009703 [mEh]      -0.00006089 [kcal/mol]      -0.00025476 [kJ/mol]
      Ind20,r                      -0.00017614 [mEh]      -0.00011053 [kcal/mol]      -0.00046245 [kJ/mol]
      Exch-Ind20,r                  0.00000014 [mEh]       0.00000009 [kcal/mol]       0.00000036 [kJ/mol]
      delta HF,r (2)                0.00007897 [mEh]       0.00004955 [kcal/mol]       0.00020733 [kJ/mol]

    Dispersion                     -0.00352833 [mEh]      -0.00221406 [kcal/mol]      -0.00926363 [kJ/mol]
      Disp20                       -0.00352834 [mEh]      -0.00221407 [kcal/mol]      -0.00926366 [kJ/mol]
      Exch-Disp20                   0.00000001 [mEh]       0.00000001 [kcal/mol]       0.00000003 [kJ/mol]
      Disp20 (SS)                  -0.00176417 [mEh]      -0.00110703 [kcal/mol]      -0.00463183 [kJ/mol]
      Disp20 (OS)                  -0.00176417 [mEh]      -0.00110703 [kcal/mol]      -0.00463183 [kJ/mol]
      Exch-Disp20 (SS)              0.00000001 [mEh]       0.00000001 [kcal/mol]       0.00000003 [kJ/mol]
      Exch-Disp20 (OS)              0.00000000 [mEh]       0.00000000 [kcal/mol]       0.00000001 [kJ/mol]

  Total HF                          0.02732670 [mEh]       0.01714776 [kcal/mol]       0.07174624 [kJ/mol]
  Total SAPT0                       0.02379837 [mEh]       0.01493370 [kcal/mol]       0.06248261 [kJ/mol]

  Special recipe for scaled SAPT0 (see Manual):
    Electrostatics sSAPT0           0.02742368 [mEh]       0.01720862 [kcal/mol]       0.07200087 [kJ/mol]
    Exchange sSAPT0                 0.00000005 [mEh]       0.00000003 [kcal/mol]       0.00000013 [kJ/mol]
    Induction sSAPT0               -0.00009703 [mEh]      -0.00006089 [kcal/mol]      -0.00025476 [kJ/mol]
    Dispersion sSAPT0              -0.00352833 [mEh]      -0.00221406 [kcal/mol]      -0.00926363 [kJ/mol]
  Total sSAPT0                      0.02379837 [mEh]       0.01493370 [kcal/mol]       0.06248261 [kJ/mol]
  --------------------------------------------------------------------------------------------------------

*** Psi4 exiting successfully. Buy a developer a beer!
