                               Psi4 1.4rc3

  ==> Input File <==

--------------------------------------------------------------------------
# PSI4 file produced by CrystaLattE

# Generated from:               pyrazole.xyz
# Psithon input for N-mer:      2mer-0+485
# Number of atoms per monomer:  [9, 9]
# Number of replicas:           1
# COM priority:                 1.975628195677e-05
# Minimum COM separations:      19.575
# Separation priority:          2.682390351141e-05
# Minimum monomer separations:  17.678
# Cutoff priority:              8.029638083676e-07
# Nuclear repulsion energy:     368.2094918625577

memory 7 GB

molecule Dimer_0_485 {
  N            6.27981210      -4.25303372       0.19313865
  N            6.06870777      -2.28125697       1.80544317
  H            3.66871156      -5.64628941      -1.96684001
  H            0.69034521      -2.37545694      -0.42864236
  H            3.35917442       0.17650601       3.09265017
  H            7.35266782      -1.99461311       2.90680702
  C            3.77952586      -1.21508453       1.76858172
  C            2.38242998      -2.55505538       0.04607681
  C            4.01771468      -4.38410490      -0.88761863
--
  N           33.75185229       2.40090997     -17.61081436
  N           33.87071455       4.43881700     -19.14798808
  H           36.42501503       0.00000000     -16.89278400
  H           39.31965158       2.44253874     -19.64792151
  H           36.38322751       6.15558776     -21.55255782
  H           32.40830634       5.24879406     -19.53375340
  C           36.15355095       4.76899267     -20.17703693
  C           37.63654339       2.83932046     -19.28711446
  C           36.07523806       1.45415264     -17.69541651
units = au
no_com
no_reorient
}

set {
  e_convergence 10
  d_convergence 10
  scf_type df
  mp2_type df
  cc_type df
  freeze_core true
}

energy('sapt0/aug-cc-pvdz')

--------------------------------------------------------------------------

  //              Dimer HF             //
    Molecular point group: c1
  Charge       = 0
  Multiplicity = 1
  Basis Set: AUG-CC-PVDZ
    Blend: AUG-CC-PVDZ
  Basis Set: (AUG-CC-PVDZ AUX)
    Blend: AUG-CC-PVDZ-JKFIT
  @DF-RHF Final Energy:  -449.52474759364640
    Total Energy =                       -449.5247475936464525
  //            Monomer A HF           //
    Molecular point group: c1
  Multiplicity = 1
  Basis Set: AUG-CC-PVDZ
    Blend: AUG-CC-PVDZ
  Basis Set: (AUG-CC-PVDZ AUX)
    Blend: AUG-CC-PVDZ-JKFIT
  @DF-RHF Final Energy:  -224.76233952262959
    Total Energy =                       -224.7623395226295884
  //            Monomer B HF           //
    Molecular point group: c1

    Geometry (in Bohr), charge = 0, multiplicity = 1:

       Center              X                  Y                   Z               Mass
    ------------   -----------------  -----------------  -----------------  -----------------
      Gh(N)           6.279812100000    -4.253033720000     0.193138650000    14.003074004430
      Gh(N)           6.068707770000    -2.281256970000     1.805443170000    14.003074004430
      Gh(H)           3.668711560000    -5.646289410000    -1.966840010000     1.007825032230
      Gh(H)           0.690345210000    -2.375456940000    -0.428642360000     1.007825032230
      Gh(H)           3.359174420000     0.176506010000     3.092650170000     1.007825032230
      Gh(H)           7.352667820000    -1.994613110000     2.906807020000     1.007825032230
      Gh(C)           3.779525860000    -1.215084530000     1.768581720000    12.000000000000
      Gh(C)           2.382429980000    -2.555055380000     0.046076810000    12.000000000000
      Gh(C)           4.017714680000    -4.384104900000    -0.887618630000    12.000000000000
         N           33.751852290000     2.400909970000   -17.610814360000    14.003074004430
         N           33.870714550000     4.438817000000   -19.147988080000    14.003074004430
         H           36.425015030000     0.000000000000   -16.892784000000     1.007825032230
         H           39.319651580000     2.442538740000   -19.647921510000     1.007825032230
         H           36.383227510000     6.155587760000   -21.552557820000     1.007825032230
         H           32.408306340000     5.248794060000   -19.533753400000     1.007825032230
         C           36.153550950000     4.768992670000   -20.177036930000    12.000000000000
         C           37.636543390000     2.839320460000   -19.287114460000    12.000000000000
         C           36.075238060000     1.454152640000   -17.695416510000    12.000000000000

  Charge       = 0
  Multiplicity = 1
  Basis Set: AUG-CC-PVDZ
    Blend: AUG-CC-PVDZ
  Basis Set: (AUG-CC-PVDZ AUX)
    Blend: AUG-CC-PVDZ-JKFIT

    Orbital Energies [Eh]
    ---------------------

    Doubly Occupied:

       1A    -15.636233     2A    -15.592291     3A    -11.279903
       4A    -11.237759     5A    -11.209884     6A     -1.387001
       7A     -1.121894     8A     -1.066928     9A     -0.872759
      10A     -0.837039    11A     -0.757272    12A     -0.645745
      13A     -0.620828    14A     -0.609177    15A     -0.583905
      16A     -0.461413    17A     -0.370715    18A     -0.346055

  @DF-RHF Final Energy:  -224.76243506183371

   => Energetics <=

    Nuclear Repulsion Energy =            166.6286028025063217
    One-Electron Energy =                -633.5084733838117472
    Two-Electron Energy =                 242.1174355194717407
    Total Energy =                       -224.7624350618337132

  Dipole Moment: [D]
     X:     0.7394      Y:     1.4336      Z:    -1.7871     Total:     2.4074

    SAPT Results
  --------------------------------------------------------------------------------------------------------
    Electrostatics                  0.02699096 [mEh]       0.01693709 [kcal/mol]       0.07086476 [kJ/mol]
      Elst10,r                      0.02699096 [mEh]       0.01693709 [kcal/mol]       0.07086476 [kJ/mol]

    Exchange                        0.00000000 [mEh]       0.00000000 [kcal/mol]       0.00000000 [kJ/mol]
      Exch10                        0.00000000 [mEh]       0.00000000 [kcal/mol]       0.00000000 [kJ/mol]
      Exch10(S^2)                   0.00000000 [mEh]       0.00000000 [kcal/mol]       0.00000000 [kJ/mol]

    Induction                      -0.00000015 [mEh]      -0.00000009 [kcal/mol]      -0.00000038 [kJ/mol]
      Ind20,r                      -0.00005463 [mEh]      -0.00003428 [kcal/mol]      -0.00014344 [kJ/mol]
      Exch-Ind20,r                  0.00000000 [mEh]       0.00000000 [kcal/mol]       0.00000000 [kJ/mol]
      delta HF,r (2)                0.00005449 [mEh]       0.00003419 [kcal/mol]       0.00014305 [kJ/mol]

    Dispersion                     -0.00043779 [mEh]      -0.00027472 [kcal/mol]      -0.00114941 [kJ/mol]
      Disp20                       -0.00043779 [mEh]      -0.00027472 [kcal/mol]      -0.00114941 [kJ/mol]
      Exch-Disp20                   0.00000000 [mEh]       0.00000000 [kcal/mol]       0.00000000 [kJ/mol]
      Disp20 (SS)                  -0.00021889 [mEh]      -0.00013736 [kcal/mol]      -0.00057471 [kJ/mol]
      Disp20 (OS)                  -0.00021889 [mEh]      -0.00013736 [kcal/mol]      -0.00057471 [kJ/mol]
      Exch-Disp20 (SS)              0.00000000 [mEh]       0.00000000 [kcal/mol]       0.00000000 [kJ/mol]
      Exch-Disp20 (OS)              0.00000000 [mEh]       0.00000000 [kcal/mol]       0.00000000 [kJ/mol]

  Total HF                          0.02699082 [mEh]       0.01693699 [kcal/mol]       0.07086438 [kJ/mol]
  Total SAPT0                       0.02655303 [mEh]       0.01666228 [kcal/mol]       0.06971497 [kJ/mol]

  Special recipe for scaled SAPT0 (see Manual):
    Electrostatics sSAPT0           0.02699096 [mEh]       0.01693709 [kcal/mol]       0.07086476 [kJ/mol]
    Exchange sSAPT0                 0.00000000 [mEh]       0.00000000 [kcal/mol]       0.00000000 [kJ/mol]
    Induction sSAPT0               -0.00000015 [mEh]      -0.00000009 [kcal/mol]      -0.00000038 [kJ/mol]
    Dispersion sSAPT0              -0.00043779 [mEh]      -0.00027472 [kcal/mol]      -0.00114941 [kJ/mol]
  Total sSAPT0                      0.02655303 [mEh]       0.01666228 [kcal/mol]       0.06971497 [kJ/mol]
  --------------------------------------------------------------------------------------------------------

*** Psi4 exiting successfully. Buy a developer a beer!
