                               Psi4 1.4rc3

  ==> Input File <==

--------------------------------------------------------------------------
# PSI4 file produced by CrystaLattE

# Generated from:               pyrazole.xyz
# Psithon input for N-mer:      2mer-0+572
# Number of atoms per monomer:  [9, 9]
# Number of replicas:           1
# COM priority:                 1.558570832942e-05
# Minimum COM separations:      21.185
# Separation priority:          2.002551950954e-05
# Minimum monomer separations:  19.487
# Cutoff priority:              5.438073277636e-07
# Nuclear repulsion energy:     365.5707601870676

memory 7 GB

molecule Dimer_0_572 {
  N            6.27981210      -4.25303372       0.19313865
  N            6.06870777      -2.28125697       1.80544317
  H            3.66871156      -5.64628941      -1.96684001
  H            0.69034521      -2.37545694      -0.42864236
  H            3.35917442       0.17650601       3.09265017
  H            7.35266782      -1.99461311       2.90680702
  C            3.77952586      -1.21508453       1.76858172
  C            2.38242998      -2.55505538       0.04607681
  C            4.01771468      -4.38410490      -0.88761863
--
  N            2.79813836     -14.18732502      39.98520336
  N            2.91700062     -16.22523205      38.44802964
  H            5.47130109     -11.78641505      40.70323371
  H            8.36593765     -14.22895380      37.94809621
  H            5.42951358     -17.94200281      36.04345989
  H            1.45459240     -17.03520911      38.06226431
  C            5.19983702     -16.55540772      37.41898079
  C            6.68282945     -14.62573551      38.30890326
  C            5.12152412     -13.24056769      39.90060121
units = au
no_com
no_reorient
}

set {
  e_convergence 10
  d_convergence 10
  scf_type df
  mp2_type df
  cc_type df
  freeze_core true
}

energy('sapt0/aug-cc-pvdz')

--------------------------------------------------------------------------

  //              Dimer HF             //
    Molecular point group: c1
  Charge       = 0
  Multiplicity = 1
  Basis Set: AUG-CC-PVDZ
    Blend: AUG-CC-PVDZ
  Basis Set: (AUG-CC-PVDZ AUX)
    Blend: AUG-CC-PVDZ-JKFIT
  @DF-RHF Final Energy:  -449.52478466001423
    Total Energy =                       -449.5247846600142339
  //            Monomer A HF           //
    Molecular point group: c1
  Multiplicity = 1
  Basis Set: AUG-CC-PVDZ
    Blend: AUG-CC-PVDZ
  Basis Set: (AUG-CC-PVDZ AUX)
    Blend: AUG-CC-PVDZ-JKFIT
  @DF-RHF Final Energy:  -224.76233952023591
    Total Energy =                       -224.7623395202359120
  //            Monomer B HF           //
    Molecular point group: c1

    Geometry (in Bohr), charge = 0, multiplicity = 1:

       Center              X                  Y                   Z               Mass
    ------------   -----------------  -----------------  -----------------  -----------------
      Gh(N)           6.279812100000    -4.253033720000     0.193138650000    14.003074004430
      Gh(N)           6.068707770000    -2.281256970000     1.805443170000    14.003074004430
      Gh(H)           3.668711560000    -5.646289410000    -1.966840010000     1.007825032230
      Gh(H)           0.690345210000    -2.375456940000    -0.428642360000     1.007825032230
      Gh(H)           3.359174420000     0.176506010000     3.092650170000     1.007825032230
      Gh(H)           7.352667820000    -1.994613110000     2.906807020000     1.007825032230
      Gh(C)           3.779525860000    -1.215084530000     1.768581720000    12.000000000000
      Gh(C)           2.382429980000    -2.555055380000     0.046076810000    12.000000000000
      Gh(C)           4.017714680000    -4.384104900000    -0.887618630000    12.000000000000
         N            2.798138360000   -14.187325020000    39.985203360000    14.003074004430
         N            2.917000620000   -16.225232050000    38.448029640000    14.003074004430
         H            5.471301090000   -11.786415050000    40.703233710000     1.007825032230
         H            8.365937650000   -14.228953800000    37.948096210000     1.007825032230
         H            5.429513580000   -17.942002810000    36.043459890000     1.007825032230
         H            1.454592400000   -17.035209110000    38.062264310000     1.007825032230
         C            5.199837020000   -16.555407720000    37.418980790000    12.000000000000
         C            6.682829450000   -14.625735510000    38.308903260000    12.000000000000
         C            5.121524120000   -13.240567690000    39.900601210000    12.000000000000

  Charge       = 0
  Multiplicity = 1
  Basis Set: AUG-CC-PVDZ
    Blend: AUG-CC-PVDZ
  Basis Set: (AUG-CC-PVDZ AUX)
    Blend: AUG-CC-PVDZ-JKFIT

    Orbital Energies [Eh]
    ---------------------

    Doubly Occupied:

       1A    -15.636233     2A    -15.592291     3A    -11.279903
       4A    -11.237759     5A    -11.209884     6A     -1.387001
       7A     -1.121894     8A     -1.066928     9A     -0.872759
      10A     -0.837039    11A     -0.757272    12A     -0.645745
      13A     -0.620828    14A     -0.609177    15A     -0.583905
      16A     -0.461413    17A     -0.370715    18A     -0.346055

  @DF-RHF Final Energy:  -224.76243506221232

   => Energetics <=

    Nuclear Repulsion Energy =            166.6286029064278864
    One-Electron Energy =                -633.5084736003977923
    Two-Electron Energy =                 242.1174356317575871
    Total Energy =                       -224.7624350622123188

  Dipole Moment: [D]
     X:     0.7394      Y:    -1.4336      Z:    -1.7871     Total:     2.4074

    SAPT Results
  --------------------------------------------------------------------------------------------------------
    Electrostatics                 -0.01011293 [mEh]      -0.00634596 [kcal/mol]      -0.02655150 [kJ/mol]
      Elst10,r                     -0.01011293 [mEh]      -0.00634596 [kcal/mol]      -0.02655150 [kJ/mol]

    Exchange                        0.00000000 [mEh]       0.00000000 [kcal/mol]       0.00000000 [kJ/mol]
      Exch10                        0.00000000 [mEh]       0.00000000 [kcal/mol]       0.00000000 [kJ/mol]
      Exch10(S^2)                   0.00000000 [mEh]       0.00000000 [kcal/mol]       0.00000000 [kJ/mol]

    Induction                       0.00003537 [mEh]       0.00002219 [kcal/mol]       0.00009286 [kJ/mol]
      Ind20,r                      -0.00001277 [mEh]      -0.00000801 [kcal/mol]      -0.00003353 [kJ/mol]
      Exch-Ind20,r                  0.00000000 [mEh]       0.00000000 [kcal/mol]       0.00000000 [kJ/mol]
      delta HF,r (2)                0.00004814 [mEh]       0.00003021 [kcal/mol]       0.00012639 [kJ/mol]

    Dispersion                     -0.00024196 [mEh]      -0.00015183 [kcal/mol]      -0.00063527 [kJ/mol]
      Disp20                       -0.00024196 [mEh]      -0.00015183 [kcal/mol]      -0.00063527 [kJ/mol]
      Exch-Disp20                   0.00000000 [mEh]       0.00000000 [kcal/mol]       0.00000000 [kJ/mol]
      Disp20 (SS)                  -0.00012098 [mEh]      -0.00007592 [kcal/mol]      -0.00031764 [kJ/mol]
      Disp20 (OS)                  -0.00012098 [mEh]      -0.00007592 [kcal/mol]      -0.00031764 [kJ/mol]
      Exch-Disp20 (SS)              0.00000000 [mEh]       0.00000000 [kcal/mol]       0.00000000 [kJ/mol]
      Exch-Disp20 (OS)              0.00000000 [mEh]       0.00000000 [kcal/mol]       0.00000000 [kJ/mol]

  Total HF                         -0.01007757 [mEh]      -0.00632377 [kcal/mol]      -0.02645865 [kJ/mol]
  Total SAPT0                      -0.01031953 [mEh]      -0.00647560 [kcal/mol]      -0.02709392 [kJ/mol]

  Special recipe for scaled SAPT0 (see Manual):
    Electrostatics sSAPT0          -0.01011293 [mEh]      -0.00634596 [kcal/mol]      -0.02655150 [kJ/mol]
    Exchange sSAPT0                 0.00000000 [mEh]       0.00000000 [kcal/mol]       0.00000000 [kJ/mol]
    Induction sSAPT0                0.00003537 [mEh]       0.00002219 [kcal/mol]       0.00009286 [kJ/mol]
    Dispersion sSAPT0              -0.00024196 [mEh]      -0.00015183 [kcal/mol]      -0.00063527 [kJ/mol]
  Total sSAPT0                     -0.01031953 [mEh]      -0.00647560 [kcal/mol]      -0.02709392 [kJ/mol]
  --------------------------------------------------------------------------------------------------------

*** Psi4 exiting successfully. Buy a developer a beer!
