                               Psi4 1.4rc3

  ==> Input File <==

--------------------------------------------------------------------------
# PSI4 file produced by CrystaLattE

# Generated from:               pyrazole.xyz
# Psithon input for N-mer:      2mer-0+323
# Number of atoms per monomer:  [9, 9]
# Number of replicas:           2
# COM priority:                 1.469301481158e-05
# Minimum COM separations:      21.605
# Separation priority:          2.552767116122e-05
# Minimum monomer separations:  17.972
# Cutoff priority:              7.516487318064e-07
# Nuclear repulsion energy:     365.04202176878505

memory 7 GB

molecule Dimer_0_323 {
  N            6.27981210      -4.25303372       0.19313865
  N            6.06870777      -2.28125697       1.80544317
  H            3.66871156      -5.64628941      -1.96684001
  H            0.69034521      -2.37545694      -0.42864236
  H            3.35917442       0.17650601       3.09265017
  H            7.35266782      -1.99461311       2.90680702
  C            3.77952586      -1.21508453       1.76858172
  C            2.38242998      -2.55505538       0.04607681
  C            4.01771468      -4.38410490      -0.88761863
--
  N          -32.41233032       4.36055490      12.65205322
  N          -32.62343465       2.38877815      11.03974869
  H          -35.02343086       5.75381059      14.81203187
  H          -38.00179721       2.48297813      13.27383422
  H          -35.33296800      -0.06898483       9.75254169
  H          -31.33947459       2.10213429       9.93838484
  C          -34.91261656       1.32260571      11.07661014
  C          -36.30971244       2.66257657      12.79911505
  C          -34.67442773       4.49162608      13.73281049
units = au
no_com
no_reorient
}

set {
  e_convergence 10
  d_convergence 10
  scf_type df
  mp2_type df
  cc_type df
  freeze_core true
}

energy('sapt0/aug-cc-pvdz')

--------------------------------------------------------------------------

  //              Dimer HF             //
    Molecular point group: c1
  Charge       = 0
  Multiplicity = 1
  Basis Set: AUG-CC-PVDZ
    Blend: AUG-CC-PVDZ
  Basis Set: (AUG-CC-PVDZ AUX)
    Blend: AUG-CC-PVDZ-JKFIT
  @DF-RHF Final Energy:  -449.52468953637180
    Total Energy =                       -449.5246895363717385
  //            Monomer A HF           //
    Molecular point group: c1
  Multiplicity = 1
  Basis Set: AUG-CC-PVDZ
    Blend: AUG-CC-PVDZ
  Basis Set: (AUG-CC-PVDZ AUX)
    Blend: AUG-CC-PVDZ-JKFIT
  @DF-RHF Final Energy:  -224.76233952067651
    Total Energy =                       -224.7623395206765053
  //            Monomer B HF           //
    Molecular point group: c1

    Geometry (in Bohr), charge = 0, multiplicity = 1:

       Center              X                  Y                   Z               Mass
    ------------   -----------------  -----------------  -----------------  -----------------
      Gh(N)           6.279812100000    -4.253033720000     0.193138650000    14.003074004430
      Gh(N)           6.068707770000    -2.281256970000     1.805443170000    14.003074004430
      Gh(H)           3.668711560000    -5.646289410000    -1.966840010000     1.007825032230
      Gh(H)           0.690345210000    -2.375456940000    -0.428642360000     1.007825032230
      Gh(H)           3.359174420000     0.176506010000     3.092650170000     1.007825032230
      Gh(H)           7.352667820000    -1.994613110000     2.906807020000     1.007825032230
      Gh(C)           3.779525860000    -1.215084530000     1.768581720000    12.000000000000
      Gh(C)           2.382429980000    -2.555055380000     0.046076810000    12.000000000000
      Gh(C)           4.017714680000    -4.384104900000    -0.887618630000    12.000000000000
         N          -32.412330320000     4.360554900000    12.652053220000    14.003074004430
         N          -32.623434650000     2.388778150000    11.039748690000    14.003074004430
         H          -35.023430860000     5.753810590000    14.812031870000     1.007825032230
         H          -38.001797210000     2.482978130000    13.273834220000     1.007825032230
         H          -35.332968000000    -0.068984830000     9.752541690000     1.007825032230
         H          -31.339474590000     2.102134290000     9.938384840000     1.007825032230
         C          -34.912616560000     1.322605710000    11.076610140000    12.000000000000
         C          -36.309712440000     2.662576570000    12.799115050000    12.000000000000
         C          -34.674427730000     4.491626080000    13.732810490000    12.000000000000

  Charge       = 0
  Multiplicity = 1
  Basis Set: AUG-CC-PVDZ
    Blend: AUG-CC-PVDZ
  Basis Set: (AUG-CC-PVDZ AUX)
    Blend: AUG-CC-PVDZ-JKFIT

    Orbital Energies [Eh]
    ---------------------

    Doubly Occupied:

       1A    -15.636223     2A    -15.592313     3A    -11.279894
       4A    -11.237784     5A    -11.209891     6A     -1.386922
       7A     -1.121901     8A     -1.066898     9A     -0.872768
      10A     -0.837061    11A     -0.757292    12A     -0.645746
      13A     -0.620834    14A     -0.609140    15A     -0.583920
      16A     -0.461404    17A     -0.370721    18A     -0.346048

  @DF-RHF Final Energy:  -224.76233952228938

   => Energetics <=

    Nuclear Repulsion Energy =            166.6240564477609780
    One-Electron Energy =                -633.4992733930257600
    Two-Electron Energy =                 242.1128774229754299
    Total Energy =                       -224.7623395222893805

  Dipole Moment: [D]
     X:    -1.0235      Y:    -1.6055      Z:    -1.4733     Total:     2.4075

    SAPT Results
  --------------------------------------------------------------------------------------------------------
    Electrostatics                 -0.01052411 [mEh]      -0.00660398 [kcal/mol]      -0.02763104 [kJ/mol]
      Elst10,r                     -0.01052411 [mEh]      -0.00660398 [kcal/mol]      -0.02763104 [kJ/mol]

    Exchange                        0.00000000 [mEh]       0.00000000 [kcal/mol]       0.00000000 [kJ/mol]
      Exch10                        0.00000000 [mEh]       0.00000000 [kcal/mol]       0.00000000 [kJ/mol]
      Exch10(S^2)                   0.00000000 [mEh]       0.00000000 [kcal/mol]       0.00000000 [kJ/mol]

    Induction                       0.00003070 [mEh]       0.00001927 [kcal/mol]       0.00008060 [kJ/mol]
      Ind20,r                      -0.00001696 [mEh]      -0.00001065 [kcal/mol]      -0.00004454 [kJ/mol]
      Exch-Ind20,r                  0.00000000 [mEh]       0.00000000 [kcal/mol]       0.00000000 [kJ/mol]
      delta HF,r (2)                0.00004767 [mEh]       0.00002991 [kcal/mol]       0.00012514 [kJ/mol]

    Dispersion                     -0.00027386 [mEh]      -0.00017185 [kcal/mol]      -0.00071903 [kJ/mol]
      Disp20                       -0.00027386 [mEh]      -0.00017185 [kcal/mol]      -0.00071903 [kJ/mol]
      Exch-Disp20                   0.00000000 [mEh]       0.00000000 [kcal/mol]       0.00000000 [kJ/mol]
      Disp20 (SS)                  -0.00013693 [mEh]      -0.00008593 [kcal/mol]      -0.00035952 [kJ/mol]
      Disp20 (OS)                  -0.00013693 [mEh]      -0.00008593 [kcal/mol]      -0.00035952 [kJ/mol]
      Exch-Disp20 (SS)              0.00000000 [mEh]       0.00000000 [kcal/mol]       0.00000000 [kJ/mol]
      Exch-Disp20 (OS)              0.00000000 [mEh]       0.00000000 [kcal/mol]       0.00000000 [kJ/mol]

  Total HF                         -0.01049341 [mEh]      -0.00658471 [kcal/mol]      -0.02755043 [kJ/mol]
  Total SAPT0                      -0.01076727 [mEh]      -0.00675656 [kcal/mol]      -0.02826946 [kJ/mol]

  Special recipe for scaled SAPT0 (see Manual):
    Electrostatics sSAPT0          -0.01052411 [mEh]      -0.00660398 [kcal/mol]      -0.02763104 [kJ/mol]
    Exchange sSAPT0                 0.00000000 [mEh]       0.00000000 [kcal/mol]       0.00000000 [kJ/mol]
    Induction sSAPT0                0.00003070 [mEh]       0.00001927 [kcal/mol]       0.00008060 [kJ/mol]
    Dispersion sSAPT0              -0.00027386 [mEh]      -0.00017185 [kcal/mol]      -0.00071903 [kJ/mol]
  Total sSAPT0                     -0.01076727 [mEh]      -0.00675656 [kcal/mol]      -0.02826946 [kJ/mol]
  --------------------------------------------------------------------------------------------------------

*** Psi4 exiting successfully. Buy a developer a beer!
