                               Psi4 1.4rc3

  ==> Input File <==

--------------------------------------------------------------------------
# PSI4 file produced by CrystaLattE

# Generated from:               pyrazole.xyz
# Psithon input for N-mer:      2mer-0+52
# Number of atoms per monomer:  [9, 9]
# Number of replicas:           1
# COM priority:                 2.114291616178e-04
# Minimum COM separations:      8.883
# Separation priority:          5.989167811582e-04
# Minimum monomer separations:  6.278
# Cutoff priority:              5.048418029931e-05
# Nuclear repulsion energy:     410.45164561529305

memory 7 GB

molecule Dimer_0_52 {
  N            6.27981210      -4.25303372       0.19313865
  N            6.06870777      -2.28125697       1.80544317
  H            3.66871156      -5.64628941      -1.96684001
  H            0.69034521      -2.37545694      -0.42864236
  H            3.35917442       0.17650601       3.09265017
  H            7.35266782      -1.99461311       2.90680702
  C            3.77952586      -1.21508453       1.76858172
  C            2.38242998      -2.55505538       0.04607681
  C            4.01771468      -4.38410490      -0.88761863
--
  N           10.53656684      -9.49302627     -14.34089645
  N           10.65542910      -7.45511923     -12.80372273
  H           13.20972957     -11.89393623     -15.05892680
  H           16.10436613      -9.45139749     -12.30378930
  H           13.16794206      -5.73834848     -10.39915299
  H            9.19302089      -6.64514217     -12.41795740
  C           12.93826550      -7.12494356     -11.77467388
  C           14.42125794      -9.05461578     -12.66459635
  C           12.85995261     -10.43978359     -14.25629430
units = au
no_com
no_reorient
}

set {
  e_convergence 10
  d_convergence 10
  scf_type df
  mp2_type df
  cc_type df
  freeze_core true
}

energy('sapt0/aug-cc-pvdz')

--------------------------------------------------------------------------

  //              Dimer HF             //
    Molecular point group: c1
  Charge       = 0
  Multiplicity = 1
  Basis Set: AUG-CC-PVDZ
    Blend: AUG-CC-PVDZ
  Basis Set: (AUG-CC-PVDZ AUX)
    Blend: AUG-CC-PVDZ-JKFIT
  @DF-RHF Final Energy:  -449.52515832962933
    Total Energy =                       -449.5251583296293347
  //            Monomer A HF           //
    Molecular point group: c1
  Multiplicity = 1
  Basis Set: AUG-CC-PVDZ
    Blend: AUG-CC-PVDZ
  Basis Set: (AUG-CC-PVDZ AUX)
    Blend: AUG-CC-PVDZ-JKFIT
  @DF-RHF Final Energy:  -224.76236387805488
    Total Energy =                       -224.7623638780548845
  //            Monomer B HF           //
    Molecular point group: c1

    Geometry (in Bohr), charge = 0, multiplicity = 1:

       Center              X                  Y                   Z               Mass
    ------------   -----------------  -----------------  -----------------  -----------------
      Gh(N)           6.279812100000    -4.253033720000     0.193138650000    14.003074004430
      Gh(N)           6.068707770000    -2.281256970000     1.805443170000    14.003074004430
      Gh(H)           3.668711560000    -5.646289410000    -1.966840010000     1.007825032230
      Gh(H)           0.690345210000    -2.375456940000    -0.428642360000     1.007825032230
      Gh(H)           3.359174420000     0.176506010000     3.092650170000     1.007825032230
      Gh(H)           7.352667820000    -1.994613110000     2.906807020000     1.007825032230
      Gh(C)           3.779525860000    -1.215084530000     1.768581720000    12.000000000000
      Gh(C)           2.382429980000    -2.555055380000     0.046076810000    12.000000000000
      Gh(C)           4.017714680000    -4.384104900000    -0.887618630000    12.000000000000
         N           10.536566840000    -9.493026270000   -14.340896450000    14.003074004430
         N           10.655429100000    -7.455119230000   -12.803722730000    14.003074004430
         H           13.209729570000   -11.893936230000   -15.058926800000     1.007825032230
         H           16.104366130000    -9.451397490000   -12.303789300000     1.007825032230
         H           13.167942060000    -5.738348480000   -10.399152990000     1.007825032230
         H            9.193020890000    -6.645142170000   -12.417957400000     1.007825032230
         C           12.938265500000    -7.124943560000   -11.774673880000    12.000000000000
         C           14.421257940000    -9.054615780000   -12.664596350000    12.000000000000
         C           12.859952610000   -10.439783590000   -14.256294300000    12.000000000000

  Charge       = 0
  Multiplicity = 1
  Basis Set: AUG-CC-PVDZ
    Blend: AUG-CC-PVDZ
  Basis Set: (AUG-CC-PVDZ AUX)
    Blend: AUG-CC-PVDZ-JKFIT

    Orbital Energies [Eh]
    ---------------------

    Doubly Occupied:

       1A    -15.636235     2A    -15.592296     3A    -11.279903
       4A    -11.237759     5A    -11.209886     6A     -1.387003
       7A     -1.121896     8A     -1.066929     9A     -0.872761
      10A     -0.837042    11A     -0.757274    12A     -0.645747
      13A     -0.620830    14A     -0.609178    15A     -0.583908
      16A     -0.461415    17A     -0.370716    18A     -0.346055

  @DF-RHF Final Energy:  -224.76244759205991

   => Energetics <=

    Nuclear Repulsion Energy =            166.6286027687440310
    One-Electron Energy =                -633.5084313866613002
    Two-Electron Energy =                 242.1173810258573553
    Total Energy =                       -224.7624475920599139

  Dipole Moment: [D]
     X:     0.7391      Y:     1.4335      Z:     1.7872     Total:     2.4073

    SAPT Results
  --------------------------------------------------------------------------------------------------------
    Electrostatics                 -0.33851910 [mEh]      -0.21242394 [kcal/mol]      -0.88878178 [kJ/mol]
      Elst10,r                     -0.33851910 [mEh]      -0.21242394 [kcal/mol]      -0.88878178 [kJ/mol]

    Exchange                        0.00001289 [mEh]       0.00000809 [kcal/mol]       0.00003385 [kJ/mol]
      Exch10                        0.00001289 [mEh]       0.00000809 [kcal/mol]       0.00003385 [kJ/mol]
      Exch10(S^2)                   0.00001289 [mEh]       0.00000809 [kcal/mol]       0.00003385 [kJ/mol]

    Induction                      -0.00835330 [mEh]      -0.00524178 [kcal/mol]      -0.02193160 [kJ/mol]
      Ind20,r                      -0.00832123 [mEh]      -0.00522165 [kcal/mol]      -0.02184739 [kJ/mol]
      Exch-Ind20,r                  0.00002647 [mEh]       0.00001661 [kcal/mol]       0.00006950 [kJ/mol]
      delta HF,r (2)               -0.00005854 [mEh]      -0.00003674 [kcal/mol]      -0.00015370 [kJ/mol]

    Dispersion                     -0.06268280 [mEh]      -0.03933405 [kcal/mol]      -0.16457367 [kJ/mol]
      Disp20                       -0.06268950 [mEh]      -0.03933825 [kcal/mol]      -0.16459125 [kJ/mol]
      Exch-Disp20                   0.00000670 [mEh]       0.00000420 [kcal/mol]       0.00001759 [kJ/mol]
      Disp20 (SS)                  -0.03134475 [mEh]      -0.01966913 [kcal/mol]      -0.08229563 [kJ/mol]
      Disp20 (OS)                  -0.03134475 [mEh]      -0.01966913 [kcal/mol]      -0.08229563 [kJ/mol]
      Exch-Disp20 (SS)              0.00000536 [mEh]       0.00000336 [kcal/mol]       0.00001407 [kJ/mol]
      Exch-Disp20 (OS)              0.00000134 [mEh]       0.00000084 [kcal/mol]       0.00000351 [kJ/mol]

  Total HF                         -0.34685951 [mEh]      -0.21765763 [kcal/mol]      -0.91067953 [kJ/mol]
  Total SAPT0                      -0.40954231 [mEh]      -0.25699168 [kcal/mol]      -1.07525320 [kJ/mol]

  Special recipe for scaled SAPT0 (see Manual):
    Electrostatics sSAPT0          -0.33851910 [mEh]      -0.21242394 [kcal/mol]      -0.88878178 [kJ/mol]
    Exchange sSAPT0                 0.00001289 [mEh]       0.00000809 [kcal/mol]       0.00003385 [kJ/mol]
    Induction sSAPT0               -0.00835330 [mEh]      -0.00524178 [kcal/mol]      -0.02193160 [kJ/mol]
    Dispersion sSAPT0              -0.06268280 [mEh]      -0.03933405 [kcal/mol]      -0.16457367 [kJ/mol]
  Total sSAPT0                     -0.40954231 [mEh]      -0.25699168 [kcal/mol]      -1.07525320 [kJ/mol]
  --------------------------------------------------------------------------------------------------------

*** Psi4 exiting successfully. Buy a developer a beer!
