                               Psi4 1.4rc3

  ==> Input File <==

--------------------------------------------------------------------------
# PSI4 file produced by CrystaLattE

# Generated from:               pyrazole.xyz
# Psithon input for N-mer:      2mer-0+443
# Number of atoms per monomer:  [9, 9]
# Number of replicas:           1
# COM priority:                 1.421587243340e-05
# Minimum COM separations:      21.845
# Separation priority:          1.914195215746e-05
# Minimum monomer separations:  19.782
# Cutoff priority:              5.120530632808e-07
# Nuclear repulsion energy:     364.6316085886176

memory 7 GB

molecule Dimer_0_443 {
  N            6.27981210      -4.25303372       0.19313865
  N            6.06870777      -2.28125697       1.80544317
  H            3.66871156      -5.64628941      -1.96684001
  H            0.69034521      -2.37545694      -0.42864236
  H            3.35917442       0.17650601       3.09265017
  H            7.35266782      -1.99461311       2.90680702
  C            3.77952586      -1.21508453       1.76858172
  C            2.38242998      -2.55505538       0.04607681
  C            4.01771468      -4.38410490      -0.88761863
--
  N           10.53656684      21.49448368     -33.53956902
  N           10.65542910      19.45657665     -32.00239530
  H           13.20972957      23.89539365     -34.25759937
  H           16.10436613      21.45285491     -31.50246187
  H           13.16794206      17.73980589     -29.59782556
  H            9.19302089      18.64659959     -31.61662997
  C           12.93826550      19.12640098     -30.97334645
  C           14.42125794      21.05607319     -31.86326892
  C           12.85995261      22.44124101     -33.45496687
units = au
no_com
no_reorient
}

set {
  e_convergence 10
  d_convergence 10
  scf_type df
  mp2_type df
  cc_type df
  freeze_core true
}

energy('sapt0/aug-cc-pvdz')

--------------------------------------------------------------------------

  //              Dimer HF             //
    Molecular point group: c1
  Charge       = 0
  Multiplicity = 1
  Basis Set: AUG-CC-PVDZ
    Blend: AUG-CC-PVDZ
  Basis Set: (AUG-CC-PVDZ AUX)
    Blend: AUG-CC-PVDZ-JKFIT
  @DF-RHF Final Energy:  -449.52478735761065
    Total Energy =                       -449.5247873576106485
  //            Monomer A HF           //
    Molecular point group: c1
  Multiplicity = 1
  Basis Set: AUG-CC-PVDZ
    Blend: AUG-CC-PVDZ
  Basis Set: (AUG-CC-PVDZ AUX)
    Blend: AUG-CC-PVDZ-JKFIT
  @DF-RHF Final Energy:  -224.76233952241677
    Total Energy =                       -224.7623395224167666
  //            Monomer B HF           //
    Molecular point group: c1

    Geometry (in Bohr), charge = 0, multiplicity = 1:

       Center              X                  Y                   Z               Mass
    ------------   -----------------  -----------------  -----------------  -----------------
      Gh(N)           6.279812100000    -4.253033720000     0.193138650000    14.003074004430
      Gh(N)           6.068707770000    -2.281256970000     1.805443170000    14.003074004430
      Gh(H)           3.668711560000    -5.646289410000    -1.966840010000     1.007825032230
      Gh(H)           0.690345210000    -2.375456940000    -0.428642360000     1.007825032230
      Gh(H)           3.359174420000     0.176506010000     3.092650170000     1.007825032230
      Gh(H)           7.352667820000    -1.994613110000     2.906807020000     1.007825032230
      Gh(C)           3.779525860000    -1.215084530000     1.768581720000    12.000000000000
      Gh(C)           2.382429980000    -2.555055380000     0.046076810000    12.000000000000
      Gh(C)           4.017714680000    -4.384104900000    -0.887618630000    12.000000000000
         N           10.536566840000    21.494483680000   -33.539569020000    14.003074004430
         N           10.655429100000    19.456576650000   -32.002395300000    14.003074004430
         H           13.209729570000    23.895393650000   -34.257599370000     1.007825032230
         H           16.104366130000    21.452854910000   -31.502461870000     1.007825032230
         H           13.167942060000    17.739805890000   -29.597825560000     1.007825032230
         H            9.193020890000    18.646599590000   -31.616629970000     1.007825032230
         C           12.938265500000    19.126400980000   -30.973346450000    12.000000000000
         C           14.421257940000    21.056073190000   -31.863268920000    12.000000000000
         C           12.859952610000    22.441241010000   -33.454966870000    12.000000000000

  Charge       = 0
  Multiplicity = 1
  Basis Set: AUG-CC-PVDZ
    Blend: AUG-CC-PVDZ
  Basis Set: (AUG-CC-PVDZ AUX)
    Blend: AUG-CC-PVDZ-JKFIT

    Orbital Energies [Eh]
    ---------------------

    Doubly Occupied:

       1A    -15.636233     2A    -15.592291     3A    -11.279903
       4A    -11.237759     5A    -11.209884     6A     -1.387001
       7A     -1.121894     8A     -1.066928     9A     -0.872759
      10A     -0.837039    11A     -0.757272    12A     -0.645745
      13A     -0.620828    14A     -0.609177    15A     -0.583905
      16A     -0.461413    17A     -0.370715    18A     -0.346055

  @DF-RHF Final Energy:  -224.76243505934576

   => Energetics <=

    Nuclear Repulsion Energy =            166.6286028180448682
    One-Electron Energy =                -633.5084734075761617
    Two-Electron Energy =                 242.1174355301855030
    Total Energy =                       -224.7624350593457621

  Dipole Moment: [D]
     X:     0.7394      Y:    -1.4336      Z:     1.7871     Total:     2.4074

    SAPT Results
  --------------------------------------------------------------------------------------------------------
    Electrostatics                 -0.01281118 [mEh]      -0.00803913 [kcal/mol]      -0.03363574 [kJ/mol]
      Elst10,r                     -0.01281118 [mEh]      -0.00803913 [kcal/mol]      -0.03363574 [kJ/mol]

    Exchange                        0.00000000 [mEh]       0.00000000 [kcal/mol]       0.00000000 [kJ/mol]
      Exch10                        0.00000000 [mEh]       0.00000000 [kcal/mol]       0.00000000 [kJ/mol]
      Exch10(S^2)                   0.00000000 [mEh]       0.00000000 [kcal/mol]       0.00000000 [kJ/mol]

    Induction                       0.00003533 [mEh]       0.00002217 [kcal/mol]       0.00009275 [kJ/mol]
      Ind20,r                      -0.00001879 [mEh]      -0.00001179 [kcal/mol]      -0.00004934 [kJ/mol]
      Exch-Ind20,r                  0.00000000 [mEh]       0.00000000 [kcal/mol]       0.00000000 [kJ/mol]
      delta HF,r (2)                0.00005412 [mEh]       0.00003396 [kcal/mol]       0.00014209 [kJ/mol]

    Dispersion                     -0.00021993 [mEh]      -0.00013801 [kcal/mol]      -0.00057743 [kJ/mol]
      Disp20                       -0.00021993 [mEh]      -0.00013801 [kcal/mol]      -0.00057743 [kJ/mol]
      Exch-Disp20                   0.00000000 [mEh]       0.00000000 [kcal/mol]       0.00000000 [kJ/mol]
      Disp20 (SS)                  -0.00010997 [mEh]      -0.00006901 [kcal/mol]      -0.00028872 [kJ/mol]
      Disp20 (OS)                  -0.00010997 [mEh]      -0.00006901 [kcal/mol]      -0.00028872 [kJ/mol]
      Exch-Disp20 (SS)              0.00000000 [mEh]       0.00000000 [kcal/mol]       0.00000000 [kJ/mol]
      Exch-Disp20 (OS)              0.00000000 [mEh]       0.00000000 [kcal/mol]       0.00000000 [kJ/mol]

  Total HF                         -0.01277585 [mEh]      -0.00801697 [kcal/mol]      -0.03354298 [kJ/mol]
  Total SAPT0                      -0.01299578 [mEh]      -0.00815498 [kcal/mol]      -0.03412042 [kJ/mol]

  Special recipe for scaled SAPT0 (see Manual):
    Electrostatics sSAPT0          -0.01281118 [mEh]      -0.00803913 [kcal/mol]      -0.03363574 [kJ/mol]
    Exchange sSAPT0                 0.00000000 [mEh]       0.00000000 [kcal/mol]       0.00000000 [kJ/mol]
    Induction sSAPT0                0.00003533 [mEh]       0.00002217 [kcal/mol]       0.00009275 [kJ/mol]
    Dispersion sSAPT0              -0.00021993 [mEh]      -0.00013801 [kcal/mol]      -0.00057743 [kJ/mol]
  Total sSAPT0                     -0.01299578 [mEh]      -0.00815498 [kcal/mol]      -0.03412042 [kJ/mol]
  --------------------------------------------------------------------------------------------------------

*** Psi4 exiting successfully. Buy a developer a beer!
