                               Psi4 1.4rc3

  ==> Input File <==

--------------------------------------------------------------------------
# PSI4 file produced by CrystaLattE

# Generated from:               pyrazole.xyz
# Psithon input for N-mer:      2mer-0+83
# Number of atoms per monomer:  [9, 9]
# Number of replicas:           1
# COM priority:                 6.062359686881e-05
# Minimum COM separations:      13.471
# Separation priority:          1.387230005717e-04
# Minimum monomer separations:  10.222
# Cutoff priority:              7.181215594857e-06
# Nuclear repulsion energy:     384.25622048585717

memory 7 GB

molecule Dimer_0_83 {
  N            6.27981210      -4.25303372       0.19313865
  N            6.06870777      -2.28125697       1.80544317
  H            3.66871156      -5.64628941      -1.96684001
  H            0.69034521      -2.37545694      -0.42864236
  H            3.35917442       0.17650601       3.09265017
  H            7.35266782      -1.99461311       2.90680702
  C            3.77952586      -1.21508453       1.76858172
  C            2.38242998      -2.55505538       0.04607681
  C            4.01771468      -4.38410490      -0.88761863
--
  N           -4.94029013      21.49448368       4.85777613
  N           -4.82142787      19.45657665       6.39494984
  H           -2.26712739      23.89539365       4.13974577
  H            0.62750917      21.45285491       6.89488328
  H           -2.30891491      17.73980589       8.79951959
  H           -6.28383608      18.64659959       6.78071517
  C           -2.53859146      19.12640098       7.42399869
  C           -1.05559903      21.05607319       6.53407622
  C           -2.61690436      22.44124101       4.94237828
units = au
no_com
no_reorient
}

set {
  e_convergence 10
  d_convergence 10
  scf_type df
  mp2_type df
  cc_type df
  freeze_core true
}

energy('sapt0/aug-cc-pvdz')

--------------------------------------------------------------------------

  //              Dimer HF             //
    Molecular point group: c1
  Charge       = 0
  Multiplicity = 1
  Basis Set: AUG-CC-PVDZ
    Blend: AUG-CC-PVDZ
  Basis Set: (AUG-CC-PVDZ AUX)
    Blend: AUG-CC-PVDZ-JKFIT
  @DF-RHF Final Energy:  -449.52470536371459
    Total Energy =                       -449.5247053637145882
  //            Monomer A HF           //
    Molecular point group: c1
  Multiplicity = 1
  Basis Set: AUG-CC-PVDZ
    Blend: AUG-CC-PVDZ
  Basis Set: (AUG-CC-PVDZ AUX)
    Blend: AUG-CC-PVDZ-JKFIT
  @DF-RHF Final Energy:  -224.76233991456817
    Total Energy =                       -224.7623399145681731
  //            Monomer B HF           //
    Molecular point group: c1

    Geometry (in Bohr), charge = 0, multiplicity = 1:

       Center              X                  Y                   Z               Mass
    ------------   -----------------  -----------------  -----------------  -----------------
      Gh(N)           6.279812100000    -4.253033720000     0.193138650000    14.003074004430
      Gh(N)           6.068707770000    -2.281256970000     1.805443170000    14.003074004430
      Gh(H)           3.668711560000    -5.646289410000    -1.966840010000     1.007825032230
      Gh(H)           0.690345210000    -2.375456940000    -0.428642360000     1.007825032230
      Gh(H)           3.359174420000     0.176506010000     3.092650170000     1.007825032230
      Gh(H)           7.352667820000    -1.994613110000     2.906807020000     1.007825032230
      Gh(C)           3.779525860000    -1.215084530000     1.768581720000    12.000000000000
      Gh(C)           2.382429980000    -2.555055380000     0.046076810000    12.000000000000
      Gh(C)           4.017714680000    -4.384104900000    -0.887618630000    12.000000000000
         N           -4.940290130000    21.494483680000     4.857776130000    14.003074004430
         N           -4.821427870000    19.456576650000     6.394949840000    14.003074004430
         H           -2.267127390000    23.895393650000     4.139745770000     1.007825032230
         H            0.627509170000    21.452854910000     6.894883280000     1.007825032230
         H           -2.308914910000    17.739805890000     8.799519590000     1.007825032230
         H           -6.283836080000    18.646599590000     6.780715170000     1.007825032230
         C           -2.538591460000    19.126400980000     7.423998690000    12.000000000000
         C           -1.055599030000    21.056073190000     6.534076220000    12.000000000000
         C           -2.616904360000    22.441241010000     4.942378280000    12.000000000000

  Charge       = 0
  Multiplicity = 1
  Basis Set: AUG-CC-PVDZ
    Blend: AUG-CC-PVDZ
  Basis Set: (AUG-CC-PVDZ AUX)
    Blend: AUG-CC-PVDZ-JKFIT

    Orbital Energies [Eh]
    ---------------------

    Doubly Occupied:

       1A    -15.636233     2A    -15.592291     3A    -11.279903
       4A    -11.237759     5A    -11.209884     6A     -1.387001
       7A     -1.121894     8A     -1.066927     9A     -0.872759
      10A     -0.837039    11A     -0.757272    12A     -0.645745
      13A     -0.620828    14A     -0.609177    15A     -0.583905
      16A     -0.461413    17A     -0.370715    18A     -0.346055

  @DF-RHF Final Energy:  -224.76243552711671

   => Energetics <=

    Nuclear Repulsion Energy =            166.6286028346680439
    One-Electron Energy =                -633.5084768856199844
    Two-Electron Energy =                 242.1174385238352045
    Total Energy =                       -224.7624355271167076

  Dipole Moment: [D]
     X:     0.7394      Y:    -1.4336      Z:     1.7871     Total:     2.4074

    SAPT Results
  --------------------------------------------------------------------------------------------------------
    Electrostatics                  0.07035143 [mEh]       0.04414619 [kcal/mol]       0.18470765 [kJ/mol]
      Elst10,r                      0.07035143 [mEh]       0.04414619 [kcal/mol]       0.18470765 [kJ/mol]

    Exchange                        0.00000085 [mEh]       0.00000053 [kcal/mol]       0.00000222 [kJ/mol]
      Exch10                        0.00000085 [mEh]       0.00000053 [kcal/mol]       0.00000222 [kJ/mol]
      Exch10(S^2)                   0.00000085 [mEh]       0.00000053 [kcal/mol]       0.00000222 [kJ/mol]

    Induction                      -0.00027431 [mEh]      -0.00017213 [kcal/mol]      -0.00072019 [kJ/mol]
      Ind20,r                      -0.00041116 [mEh]      -0.00025801 [kcal/mol]      -0.00107950 [kJ/mol]
      Exch-Ind20,r                  0.00000128 [mEh]       0.00000080 [kcal/mol]       0.00000336 [kJ/mol]
      delta HF,r (2)                0.00013557 [mEh]       0.00008507 [kcal/mol]       0.00035595 [kJ/mol]

    Dispersion                     -0.00483590 [mEh]      -0.00303457 [kcal/mol]      -0.01269665 [kJ/mol]
      Disp20                       -0.00483595 [mEh]      -0.00303461 [kcal/mol]      -0.01269680 [kJ/mol]
      Exch-Disp20                   0.00000006 [mEh]       0.00000003 [kcal/mol]       0.00000015 [kJ/mol]
      Disp20 (SS)                  -0.00241798 [mEh]      -0.00151730 [kcal/mol]      -0.00634840 [kJ/mol]
      Disp20 (OS)                  -0.00241798 [mEh]      -0.00151730 [kcal/mol]      -0.00634840 [kJ/mol]
      Exch-Disp20 (SS)              0.00000004 [mEh]       0.00000003 [kcal/mol]       0.00000012 [kJ/mol]
      Exch-Disp20 (OS)              0.00000001 [mEh]       0.00000001 [kcal/mol]       0.00000003 [kJ/mol]

  Total HF                          0.07007797 [mEh]       0.04397459 [kcal/mol]       0.18398969 [kJ/mol]
  Total SAPT0                       0.06524207 [mEh]       0.04094002 [kcal/mol]       0.17129303 [kJ/mol]

  Special recipe for scaled SAPT0 (see Manual):
    Electrostatics sSAPT0           0.07035143 [mEh]       0.04414619 [kcal/mol]       0.18470765 [kJ/mol]
    Exchange sSAPT0                 0.00000085 [mEh]       0.00000053 [kcal/mol]       0.00000222 [kJ/mol]
    Induction sSAPT0               -0.00027431 [mEh]      -0.00017213 [kcal/mol]      -0.00072019 [kJ/mol]
    Dispersion sSAPT0              -0.00483590 [mEh]      -0.00303457 [kcal/mol]      -0.01269665 [kJ/mol]
  Total sSAPT0                      0.06524207 [mEh]       0.04094002 [kcal/mol]       0.17129303 [kJ/mol]
  --------------------------------------------------------------------------------------------------------

*** Psi4 exiting successfully. Buy a developer a beer!
