                               Psi4 1.4rc3

  ==> Input File <==

--------------------------------------------------------------------------
# PSI4 file produced by CrystaLattE

# Generated from:               pyrazole.xyz
# Psithon input for N-mer:      2mer-0+468
# Number of atoms per monomer:  [9, 9]
# Number of replicas:           2
# COM priority:                 1.736578668948e-05
# Minimum COM separations:      20.435
# Separation priority:          2.685711255865e-05
# Minimum monomer separations:  17.670
# Cutoff priority:              8.042895494782e-07
# Nuclear repulsion energy:     366.7847069474936

memory 7 GB

molecule Dimer_0_468 {
  N            6.27981210      -4.25303372       0.19313865
  N            6.06870777      -2.28125697       1.80544317
  H            3.66871156      -5.64628941      -1.96684001
  H            0.69034521      -2.37545694      -0.42864236
  H            3.35917442       0.17650601       3.09265017
  H            7.35266782      -1.99461311       2.90680702
  C            3.77952586      -1.21508453       1.76858172
  C            2.38242998      -2.55505538       0.04607681
  C            4.01771468      -4.38410490      -0.88761863
--
  N           -9.19704487     -31.32125380     -19.00553393
  N           -9.40814920     -33.29303055     -17.39322940
  H          -11.80814541     -29.92799811     -21.16551258
  H          -14.78651176     -33.19883057     -19.62731493
  H          -12.11768255     -35.75079353     -16.10602240
  H           -8.12418914     -33.57967441     -16.29186555
  C          -11.69733111     -34.35920299     -17.43009085
  C          -13.09442699     -33.01923214     -19.15259576
  C          -11.45914228     -31.19018262     -20.08629120
units = au
no_com
no_reorient
}

set {
  e_convergence 10
  d_convergence 10
  scf_type df
  mp2_type df
  cc_type df
  freeze_core true
}

energy('sapt0/aug-cc-pvdz')

--------------------------------------------------------------------------

  //              Dimer HF             //
    Molecular point group: c1
  Charge       = 0
  Multiplicity = 1
  Basis Set: AUG-CC-PVDZ
    Blend: AUG-CC-PVDZ
  Basis Set: (AUG-CC-PVDZ AUX)
    Blend: AUG-CC-PVDZ-JKFIT
  @DF-RHF Final Energy:  -449.52467087565640
    Total Energy =                       -449.5246708756563976
  //            Monomer A HF           //
    Molecular point group: c1
  Multiplicity = 1
  Basis Set: AUG-CC-PVDZ
    Blend: AUG-CC-PVDZ
  Basis Set: (AUG-CC-PVDZ AUX)
    Blend: AUG-CC-PVDZ-JKFIT
  @DF-RHF Final Energy:  -224.76233952081398
    Total Energy =                       -224.7623395208139812
  //            Monomer B HF           //
    Molecular point group: c1

    Geometry (in Bohr), charge = 0, multiplicity = 1:

       Center              X                  Y                   Z               Mass
    ------------   -----------------  -----------------  -----------------  -----------------
      Gh(N)           6.279812100000    -4.253033720000     0.193138650000    14.003074004430
      Gh(N)           6.068707770000    -2.281256970000     1.805443170000    14.003074004430
      Gh(H)           3.668711560000    -5.646289410000    -1.966840010000     1.007825032230
      Gh(H)           0.690345210000    -2.375456940000    -0.428642360000     1.007825032230
      Gh(H)           3.359174420000     0.176506010000     3.092650170000     1.007825032230
      Gh(H)           7.352667820000    -1.994613110000     2.906807020000     1.007825032230
      Gh(C)           3.779525860000    -1.215084530000     1.768581720000    12.000000000000
      Gh(C)           2.382429980000    -2.555055380000     0.046076810000    12.000000000000
      Gh(C)           4.017714680000    -4.384104900000    -0.887618630000    12.000000000000
         N           -9.197044870000   -31.321253800000   -19.005533930000    14.003074004430
         N           -9.408149200000   -33.293030550000   -17.393229400000    14.003074004430
         H          -11.808145410000   -29.927998110000   -21.165512580000     1.007825032230
         H          -14.786511760000   -33.198830570000   -19.627314930000     1.007825032230
         H          -12.117682550000   -35.750793530000   -16.106022400000     1.007825032230
         H           -8.124189140000   -33.579674410000   -16.291865550000     1.007825032230
         C          -11.697331110000   -34.359202990000   -17.430090850000    12.000000000000
         C          -13.094426990000   -33.019232140000   -19.152595760000    12.000000000000
         C          -11.459142280000   -31.190182620000   -20.086291200000    12.000000000000

  Charge       = 0
  Multiplicity = 1
  Basis Set: AUG-CC-PVDZ
    Blend: AUG-CC-PVDZ
  Basis Set: (AUG-CC-PVDZ AUX)
    Blend: AUG-CC-PVDZ-JKFIT

    Orbital Energies [Eh]
    ---------------------

    Doubly Occupied:

       1A    -15.636223     2A    -15.592313     3A    -11.279894
       4A    -11.237784     5A    -11.209891     6A     -1.386922
       7A     -1.121901     8A     -1.066898     9A     -0.872768
      10A     -0.837061    11A     -0.757292    12A     -0.645746
      13A     -0.620834    14A     -0.609140    15A     -0.583920
      16A     -0.461404    17A     -0.370721    18A     -0.346048

  @DF-RHF Final Energy:  -224.76233952351566

   => Energetics <=

    Nuclear Repulsion Energy =            166.6240564327211757
    One-Electron Energy =                -633.4992733626996824
    Two-Electron Energy =                 242.1128774064628146
    Total Energy =                       -224.7623395235156636

  Dipole Moment: [D]
     X:    -1.0235      Y:    -1.6055      Z:     1.4733     Total:     2.4075

    SAPT Results
  --------------------------------------------------------------------------------------------------------
    Electrostatics                  0.00813170 [mEh]       0.00510272 [kcal/mol]       0.02134976 [kJ/mol]
      Elst10,r                      0.00813170 [mEh]       0.00510272 [kcal/mol]       0.02134976 [kJ/mol]

    Exchange                        0.00000000 [mEh]       0.00000000 [kcal/mol]       0.00000000 [kJ/mol]
      Exch10                        0.00000000 [mEh]       0.00000000 [kcal/mol]       0.00000000 [kJ/mol]
      Exch10(S^2)                   0.00000000 [mEh]       0.00000000 [kcal/mol]       0.00000000 [kJ/mol]

    Induction                       0.00003698 [mEh]       0.00002320 [kcal/mol]       0.00009709 [kJ/mol]
      Ind20,r                      -0.00002153 [mEh]      -0.00001351 [kcal/mol]      -0.00005654 [kJ/mol]
      Exch-Ind20,r                  0.00000000 [mEh]       0.00000000 [kcal/mol]       0.00000000 [kJ/mol]
      delta HF,r (2)                0.00005851 [mEh]       0.00003672 [kcal/mol]       0.00015362 [kJ/mol]

    Dispersion                     -0.00035361 [mEh]      -0.00022189 [kcal/mol]      -0.00092840 [kJ/mol]
      Disp20                       -0.00035361 [mEh]      -0.00022189 [kcal/mol]      -0.00092840 [kJ/mol]
      Exch-Disp20                   0.00000000 [mEh]       0.00000000 [kcal/mol]       0.00000000 [kJ/mol]
      Disp20 (SS)                  -0.00017680 [mEh]      -0.00011095 [kcal/mol]      -0.00046420 [kJ/mol]
      Disp20 (OS)                  -0.00017680 [mEh]      -0.00011095 [kcal/mol]      -0.00046420 [kJ/mol]
      Exch-Disp20 (SS)              0.00000000 [mEh]       0.00000000 [kcal/mol]       0.00000000 [kJ/mol]
      Exch-Disp20 (OS)              0.00000000 [mEh]       0.00000000 [kcal/mol]       0.00000000 [kJ/mol]

  Total HF                          0.00816867 [mEh]       0.00512592 [kcal/mol]       0.02144685 [kJ/mol]
  Total SAPT0                       0.00781507 [mEh]       0.00490403 [kcal/mol]       0.02051845 [kJ/mol]

  Special recipe for scaled SAPT0 (see Manual):
    Electrostatics sSAPT0           0.00813170 [mEh]       0.00510272 [kcal/mol]       0.02134976 [kJ/mol]
    Exchange sSAPT0                 0.00000000 [mEh]       0.00000000 [kcal/mol]       0.00000000 [kJ/mol]
    Induction sSAPT0                0.00003698 [mEh]       0.00002320 [kcal/mol]       0.00009709 [kJ/mol]
    Dispersion sSAPT0              -0.00035361 [mEh]      -0.00022189 [kcal/mol]      -0.00092840 [kJ/mol]
  Total sSAPT0                      0.00781507 [mEh]       0.00490403 [kcal/mol]       0.02051845 [kJ/mol]
  --------------------------------------------------------------------------------------------------------

*** Psi4 exiting successfully. Buy a developer a beer!
