                               Psi4 1.4rc3

  ==> Input File <==

--------------------------------------------------------------------------
# PSI4 file produced by CrystaLattE

# Generated from:               pyrazole.xyz
# Psithon input for N-mer:      2mer-0+39
# Number of atoms per monomer:  [9, 9]
# Number of replicas:           1
# COM priority:                 2.797287849425e-04
# Minimum COM separations:      8.091
# Separation priority:          3.494859339963e-04
# Minimum monomer separations:  7.513
# Cutoff priority:              2.461725370123e-05
# Nuclear repulsion energy:     416.3603434534705

memory 7 GB

molecule Dimer_0_39 {
  N            6.27981210      -4.25303372       0.19313865
  N            6.06870777      -2.28125697       1.80544317
  H            3.66871156      -5.64628941      -1.96684001
  H            0.69034521      -2.37545694      -0.42864236
  H            3.35917442       0.17650601       3.09265017
  H            7.35266782      -1.99461311       2.90680702
  C            3.77952586      -1.21508453       1.76858172
  C            2.38242998      -2.55505538       0.04607681
  C            4.01771468      -4.38410490      -0.88761863
--
  N           -4.94029013      -9.49302627      11.25733365
  N           -4.82142787      -7.45511923      12.79450737
  H           -2.26712739     -11.89393623      10.53930329
  H            0.62750917      -9.45139749      13.29444080
  H           -2.30891491      -5.73834848      15.19907711
  H           -6.28383608      -6.64514217      13.18027269
  C           -2.53859146      -7.12494356      13.82355622
  C           -1.05559903      -9.05461578      12.93363375
  C           -2.61690436     -10.43978359      11.34193580
units = au
no_com
no_reorient
}

set {
  e_convergence 10
  d_convergence 10
  scf_type df
  mp2_type df
  cc_type df
  freeze_core true
}

energy('sapt0/aug-cc-pvdz')

--------------------------------------------------------------------------

  //              Dimer HF             //
    Molecular point group: c1
  Charge       = 0
  Multiplicity = 1
  Basis Set: AUG-CC-PVDZ
    Blend: AUG-CC-PVDZ
  Basis Set: (AUG-CC-PVDZ AUX)
    Blend: AUG-CC-PVDZ-JKFIT
  @DF-RHF Final Energy:  -449.52472834142230
    Total Energy =                       -449.5247283414223602
  //            Monomer A HF           //
    Molecular point group: c1
  Multiplicity = 1
  Basis Set: AUG-CC-PVDZ
    Blend: AUG-CC-PVDZ
  Basis Set: (AUG-CC-PVDZ AUX)
    Blend: AUG-CC-PVDZ-JKFIT
  @DF-RHF Final Energy:  -224.76236102644276
    Total Energy =                       -224.7623610264427612
  //            Monomer B HF           //
    Molecular point group: c1

    Geometry (in Bohr), charge = 0, multiplicity = 1:

       Center              X                  Y                   Z               Mass
    ------------   -----------------  -----------------  -----------------  -----------------
      Gh(N)           6.279812100000    -4.253033720000     0.193138650000    14.003074004430
      Gh(N)           6.068707770000    -2.281256970000     1.805443170000    14.003074004430
      Gh(H)           3.668711560000    -5.646289410000    -1.966840010000     1.007825032230
      Gh(H)           0.690345210000    -2.375456940000    -0.428642360000     1.007825032230
      Gh(H)           3.359174420000     0.176506010000     3.092650170000     1.007825032230
      Gh(H)           7.352667820000    -1.994613110000     2.906807020000     1.007825032230
      Gh(C)           3.779525860000    -1.215084530000     1.768581720000    12.000000000000
      Gh(C)           2.382429980000    -2.555055380000     0.046076810000    12.000000000000
      Gh(C)           4.017714680000    -4.384104900000    -0.887618630000    12.000000000000
         N           -4.940290130000    -9.493026270000    11.257333650000    14.003074004430
         N           -4.821427870000    -7.455119230000    12.794507370000    14.003074004430
         H           -2.267127390000   -11.893936230000    10.539303290000     1.007825032230
         H            0.627509170000    -9.451397490000    13.294440800000     1.007825032230
         H           -2.308914910000    -5.738348480000    15.199077110000     1.007825032230
         H           -6.283836080000    -6.645142170000    13.180272690000     1.007825032230
         C           -2.538591460000    -7.124943560000    13.823556220000    12.000000000000
         C           -1.055599030000    -9.054615780000    12.933633750000    12.000000000000
         C           -2.616904360000   -10.439783590000    11.341935800000    12.000000000000

  Charge       = 0
  Multiplicity = 1
  Basis Set: AUG-CC-PVDZ
    Blend: AUG-CC-PVDZ
  Basis Set: (AUG-CC-PVDZ AUX)
    Blend: AUG-CC-PVDZ-JKFIT

    Orbital Energies [Eh]
    ---------------------

    Doubly Occupied:

       1A    -15.636245     2A    -15.592303     3A    -11.279914
       4A    -11.237765     5A    -11.209899     6A     -1.387012
       7A     -1.121903     8A     -1.066940     9A     -0.872770
      10A     -0.837049    11A     -0.757283    12A     -0.645757
      13A     -0.620839    14A     -0.609186    15A     -0.583918
      16A     -0.461423    17A     -0.370723    18A     -0.346062

  @DF-RHF Final Energy:  -224.76245327512856

   => Energetics <=

    Nuclear Repulsion Energy =            166.6286026825918611
    One-Electron Energy =                -633.5081323048841568
    Two-Electron Energy =                 242.1170763471637315
    Total Energy =                       -224.7624532751285642

  Dipole Moment: [D]
     X:     0.7395      Y:     1.4338      Z:     1.7867     Total:     2.4073

    SAPT Results
  --------------------------------------------------------------------------------------------------------
    Electrostatics                  0.08977813 [mEh]       0.05633663 [kcal/mol]       0.23571246 [kJ/mol]
      Elst10,r                      0.08977813 [mEh]       0.05633663 [kcal/mol]       0.23571246 [kJ/mol]

    Exchange                        0.00001866 [mEh]       0.00001171 [kcal/mol]       0.00004899 [kJ/mol]
      Exch10                        0.00001866 [mEh]       0.00001171 [kcal/mol]       0.00004899 [kJ/mol]
      Exch10(S^2)                   0.00001866 [mEh]       0.00001171 [kcal/mol]       0.00004899 [kJ/mol]

    Induction                      -0.00383664 [mEh]      -0.00240753 [kcal/mol]      -0.01007310 [kJ/mol]
      Ind20,r                      -0.00414979 [mEh]      -0.00260403 [kcal/mol]      -0.01089528 [kJ/mol]
      Exch-Ind20,r                  0.00002796 [mEh]       0.00001754 [kcal/mol]       0.00007340 [kJ/mol]
      delta HF,r (2)                0.00028519 [mEh]       0.00017896 [kcal/mol]       0.00074877 [kJ/mol]

    Dispersion                     -0.07958469 [mEh]      -0.04994015 [kcal/mol]      -0.20894958 [kJ/mol]
      Disp20                       -0.07959654 [mEh]      -0.04994758 [kcal/mol]      -0.20898068 [kJ/mol]
      Exch-Disp20                   0.00001185 [mEh]       0.00000743 [kcal/mol]       0.00003110 [kJ/mol]
      Disp20 (SS)                  -0.03979827 [mEh]      -0.02497379 [kcal/mol]      -0.10449034 [kJ/mol]
      Disp20 (OS)                  -0.03979827 [mEh]      -0.02497379 [kcal/mol]      -0.10449034 [kJ/mol]
      Exch-Disp20 (SS)              0.00000916 [mEh]       0.00000575 [kcal/mol]       0.00002405 [kJ/mol]
      Exch-Disp20 (OS)              0.00000269 [mEh]       0.00000169 [kcal/mol]       0.00000706 [kJ/mol]

  Total HF                          0.08596015 [mEh]       0.05394081 [kcal/mol]       0.22568834 [kJ/mol]
  Total SAPT0                       0.00637546 [mEh]       0.00400066 [kcal/mol]       0.01673876 [kJ/mol]

  Special recipe for scaled SAPT0 (see Manual):
    Electrostatics sSAPT0           0.08977813 [mEh]       0.05633663 [kcal/mol]       0.23571246 [kJ/mol]
    Exchange sSAPT0                 0.00001866 [mEh]       0.00001171 [kcal/mol]       0.00004899 [kJ/mol]
    Induction sSAPT0               -0.00383664 [mEh]      -0.00240753 [kcal/mol]      -0.01007310 [kJ/mol]
    Dispersion sSAPT0              -0.07958469 [mEh]      -0.04994015 [kcal/mol]      -0.20894958 [kJ/mol]
  Total sSAPT0                      0.00637546 [mEh]       0.00400066 [kcal/mol]       0.01673876 [kJ/mol]
  --------------------------------------------------------------------------------------------------------

*** Psi4 exiting successfully. Buy a developer a beer!
