                               Psi4 1.4rc3

  ==> Input File <==

--------------------------------------------------------------------------
# PSI4 file produced by CrystaLattE

# Generated from:               pyrazole.xyz
# Psithon input for N-mer:      2mer-0+167
# Number of atoms per monomer:  [9, 9]
# Number of replicas:           1
# COM priority:                 6.934118317018e-05
# Minimum COM separations:      12.881
# Separation priority:          1.434886470850e-04
# Minimum monomer separations:  10.108
# Cutoff priority:              7.512019749168e-06
# Nuclear repulsion energy:     386.5062319223956

memory 7 GB

molecule Dimer_0_167 {
  N            6.27981210      -4.25303372       0.19313865
  N            6.06870777      -2.28125697       1.80544317
  H            3.66871156      -5.64628941      -1.96684001
  H            0.69034521      -2.37545694      -0.42864236
  H            3.35917442       0.17650601       3.09265017
  H            7.35266782      -1.99461311       2.90680702
  C            3.77952586      -1.21508453       1.76858172
  C            2.38242998      -2.55505538       0.04607681
  C            4.01771468      -4.38410490      -0.88761863
--
  N           18.27499532     -21.38696250      -4.81169931
  N           18.39385758     -19.34905546      -6.34887303
  H           20.94815806     -23.78787247      -4.09366896
  H           23.84279462     -21.34533372      -6.84880646
  H           20.90637054     -17.63228471      -8.75344277
  H           16.93144937     -18.53907841      -6.73463836
  C           20.67669399     -19.01887980      -7.37792188
  C           22.15968642     -20.94855201      -6.48799941
  C           20.59838109     -22.33371982      -4.89630146
units = au
no_com
no_reorient
}

set {
  e_convergence 10
  d_convergence 10
  scf_type df
  mp2_type df
  cc_type df
  freeze_core true
}

energy('sapt0/aug-cc-pvdz')

--------------------------------------------------------------------------

  //              Dimer HF             //
    Molecular point group: c1
  Charge       = 0
  Multiplicity = 1
  Basis Set: AUG-CC-PVDZ
    Blend: AUG-CC-PVDZ
  Basis Set: (AUG-CC-PVDZ AUX)
    Blend: AUG-CC-PVDZ-JKFIT
  @DF-RHF Final Energy:  -449.52483192944351
    Total Energy =                       -449.5248319294435078
  //            Monomer A HF           //
    Molecular point group: c1
  Multiplicity = 1
  Basis Set: AUG-CC-PVDZ
    Blend: AUG-CC-PVDZ
  Basis Set: (AUG-CC-PVDZ AUX)
    Blend: AUG-CC-PVDZ-JKFIT
  @DF-RHF Final Energy:  -224.76234030538123
    Total Energy =                       -224.7623403053812297
  //            Monomer B HF           //
    Molecular point group: c1

    Geometry (in Bohr), charge = 0, multiplicity = 1:

       Center              X                  Y                   Z               Mass
    ------------   -----------------  -----------------  -----------------  -----------------
      Gh(N)           6.279812100000    -4.253033720000     0.193138650000    14.003074004430
      Gh(N)           6.068707770000    -2.281256970000     1.805443170000    14.003074004430
      Gh(H)           3.668711560000    -5.646289410000    -1.966840010000     1.007825032230
      Gh(H)           0.690345210000    -2.375456940000    -0.428642360000     1.007825032230
      Gh(H)           3.359174420000     0.176506010000     3.092650170000     1.007825032230
      Gh(H)           7.352667820000    -1.994613110000     2.906807020000     1.007825032230
      Gh(C)           3.779525860000    -1.215084530000     1.768581720000    12.000000000000
      Gh(C)           2.382429980000    -2.555055380000     0.046076810000    12.000000000000
      Gh(C)           4.017714680000    -4.384104900000    -0.887618630000    12.000000000000
         N           18.274995320000   -21.386962500000    -4.811699310000    14.003074004430
         N           18.393857580000   -19.349055460000    -6.348873030000    14.003074004430
         H           20.948158060000   -23.787872470000    -4.093668960000     1.007825032230
         H           23.842794620000   -21.345333720000    -6.848806460000     1.007825032230
         H           20.906370540000   -17.632284710000    -8.753442770000     1.007825032230
         H           16.931449370000   -18.539078410000    -6.734638360000     1.007825032230
         C           20.676693990000   -19.018879800000    -7.377921880000    12.000000000000
         C           22.159686420000   -20.948552010000    -6.487999410000    12.000000000000
         C           20.598381090000   -22.333719820000    -4.896301460000    12.000000000000

  Charge       = 0
  Multiplicity = 1
  Basis Set: AUG-CC-PVDZ
    Blend: AUG-CC-PVDZ
  Basis Set: (AUG-CC-PVDZ AUX)
    Blend: AUG-CC-PVDZ-JKFIT

    Orbital Energies [Eh]
    ---------------------

    Doubly Occupied:

       1A    -15.636233     2A    -15.592291     3A    -11.279903
       4A    -11.237759     5A    -11.209884     6A     -1.387001
       7A     -1.121894     8A     -1.066928     9A     -0.872759
      10A     -0.837039    11A     -0.757272    12A     -0.645745
      13A     -0.620828    14A     -0.609177    15A     -0.583905
      16A     -0.461413    17A     -0.370715    18A     -0.346055

  @DF-RHF Final Energy:  -224.76243516778919

   => Energetics <=

    Nuclear Repulsion Energy =            166.6286027509845553
    One-Electron Energy =                -633.5084735531314664
    Two-Electron Energy =                 242.1174356343577188
    Total Energy =                       -224.7624351677891923

  Dipole Moment: [D]
     X:     0.7394      Y:     1.4336      Z:    -1.7871     Total:     2.4074

    SAPT Results
  --------------------------------------------------------------------------------------------------------
    Electrostatics                 -0.05576329 [mEh]      -0.03499199 [kcal/mol]      -0.14640649 [kJ/mol]
      Elst10,r                     -0.05576329 [mEh]      -0.03499199 [kcal/mol]      -0.14640649 [kJ/mol]

    Exchange                        0.00000007 [mEh]       0.00000005 [kcal/mol]       0.00000019 [kJ/mol]
      Exch10                        0.00000007 [mEh]       0.00000005 [kcal/mol]       0.00000019 [kJ/mol]
      Exch10(S^2)                   0.00000007 [mEh]       0.00000005 [kcal/mol]       0.00000019 [kJ/mol]

    Induction                      -0.00069306 [mEh]      -0.00043490 [kcal/mol]      -0.00181962 [kJ/mol]
      Ind20,r                      -0.00074117 [mEh]      -0.00046509 [kcal/mol]      -0.00194595 [kJ/mol]
      Exch-Ind20,r                  0.00000064 [mEh]       0.00000040 [kcal/mol]       0.00000169 [kJ/mol]
      delta HF,r (2)                0.00004747 [mEh]       0.00002979 [kcal/mol]       0.00012464 [kJ/mol]

    Dispersion                     -0.00617339 [mEh]      -0.00387386 [kcal/mol]      -0.01620823 [kJ/mol]
      Disp20                       -0.00617346 [mEh]      -0.00387391 [kcal/mol]      -0.01620843 [kJ/mol]
      Exch-Disp20                   0.00000007 [mEh]       0.00000005 [kcal/mol]       0.00000019 [kJ/mol]
      Disp20 (SS)                  -0.00308673 [mEh]      -0.00193695 [kcal/mol]      -0.00810421 [kJ/mol]
      Disp20 (OS)                  -0.00308673 [mEh]      -0.00193695 [kcal/mol]      -0.00810421 [kJ/mol]
      Exch-Disp20 (SS)              0.00000006 [mEh]       0.00000004 [kcal/mol]       0.00000016 [kJ/mol]
      Exch-Disp20 (OS)              0.00000001 [mEh]       0.00000001 [kcal/mol]       0.00000003 [kJ/mol]

  Total HF                         -0.05645627 [mEh]      -0.03542685 [kcal/mol]      -0.14822592 [kJ/mol]
  Total SAPT0                      -0.06262966 [mEh]      -0.03930071 [kcal/mol]      -0.16443416 [kJ/mol]

  Special recipe for scaled SAPT0 (see Manual):
    Electrostatics sSAPT0          -0.05576329 [mEh]      -0.03499199 [kcal/mol]      -0.14640649 [kJ/mol]
    Exchange sSAPT0                 0.00000007 [mEh]       0.00000005 [kcal/mol]       0.00000019 [kJ/mol]
    Induction sSAPT0               -0.00069306 [mEh]      -0.00043490 [kcal/mol]      -0.00181962 [kJ/mol]
    Dispersion sSAPT0              -0.00617339 [mEh]      -0.00387386 [kcal/mol]      -0.01620823 [kJ/mol]
  Total sSAPT0                     -0.06262966 [mEh]      -0.03930071 [kcal/mol]      -0.16443416 [kJ/mol]
  --------------------------------------------------------------------------------------------------------

*** Psi4 exiting successfully. Buy a developer a beer!
