                               Psi4 1.4rc3

  ==> Input File <==

--------------------------------------------------------------------------
# PSI4 file produced by CrystaLattE

# Generated from:               pyrazole.xyz
# Psithon input for N-mer:      2mer-0+534
# Number of atoms per monomer:  [9, 9]
# Number of replicas:           1
# COM priority:                 1.735978461789e-05
# Minimum COM separations:      20.437
# Separation priority:          2.349945411864e-05
# Minimum monomer separations:  18.475
# Cutoff priority:              6.730960344380e-07
# Nuclear repulsion energy:     366.73222693050184

memory 7 GB

molecule Dimer_0_534 {
  N            6.27981210      -4.25303372       0.19313865
  N            6.06870777      -2.28125697       1.80544317
  H            3.66871156      -5.64628941      -1.96684001
  H            0.69034521      -2.37545694      -0.42864236
  H            3.35917442       0.17650601       3.09265017
  H            7.35266782      -1.99461311       2.90680702
  C            3.77952586      -1.21508453       1.76858172
  C            2.38242998      -2.55505538       0.04607681
  C            4.01771468      -4.38410490      -0.88761863
--
  N           10.53656684      -9.49302627      36.85556374
  N           10.65542910      -7.45511923      38.39273746
  H           13.20972957     -11.89393623      36.13753339
  H           16.10436613      -9.45139749      38.89267090
  H           13.16794206      -5.73834848      40.79730721
  H            9.19302089      -6.64514217      38.77850279
  C           12.93826550      -7.12494356      39.42178631
  C           14.42125794      -9.05461578      38.53186384
  C           12.85995261     -10.43978359      36.94016589
units = au
no_com
no_reorient
}

set {
  e_convergence 10
  d_convergence 10
  scf_type df
  mp2_type df
  cc_type df
  freeze_core true
}

energy('sapt0/aug-cc-pvdz')

--------------------------------------------------------------------------

  //              Dimer HF             //
    Molecular point group: c1
  Charge       = 0
  Multiplicity = 1
  Basis Set: AUG-CC-PVDZ
    Blend: AUG-CC-PVDZ
  Basis Set: (AUG-CC-PVDZ AUX)
    Blend: AUG-CC-PVDZ-JKFIT
  @DF-RHF Final Energy:  -449.52477839150424
    Total Energy =                       -449.5247783915042419
  //            Monomer A HF           //
    Molecular point group: c1
  Multiplicity = 1
  Basis Set: AUG-CC-PVDZ
    Blend: AUG-CC-PVDZ
  Basis Set: (AUG-CC-PVDZ AUX)
    Blend: AUG-CC-PVDZ-JKFIT
  @DF-RHF Final Energy:  -224.76233952118864
    Total Energy =                       -224.7623395211886361
  //            Monomer B HF           //
    Molecular point group: c1

    Geometry (in Bohr), charge = 0, multiplicity = 1:

       Center              X                  Y                   Z               Mass
    ------------   -----------------  -----------------  -----------------  -----------------
      Gh(N)           6.279812100000    -4.253033720000     0.193138650000    14.003074004430
      Gh(N)           6.068707770000    -2.281256970000     1.805443170000    14.003074004430
      Gh(H)           3.668711560000    -5.646289410000    -1.966840010000     1.007825032230
      Gh(H)           0.690345210000    -2.375456940000    -0.428642360000     1.007825032230
      Gh(H)           3.359174420000     0.176506010000     3.092650170000     1.007825032230
      Gh(H)           7.352667820000    -1.994613110000     2.906807020000     1.007825032230
      Gh(C)           3.779525860000    -1.215084530000     1.768581720000    12.000000000000
      Gh(C)           2.382429980000    -2.555055380000     0.046076810000    12.000000000000
      Gh(C)           4.017714680000    -4.384104900000    -0.887618630000    12.000000000000
         N           10.536566840000    -9.493026270000    36.855563740000    14.003074004430
         N           10.655429100000    -7.455119230000    38.392737460000    14.003074004430
         H           13.209729570000   -11.893936230000    36.137533390000     1.007825032230
         H           16.104366130000    -9.451397490000    38.892670900000     1.007825032230
         H           13.167942060000    -5.738348480000    40.797307210000     1.007825032230
         H            9.193020890000    -6.645142170000    38.778502790000     1.007825032230
         C           12.938265500000    -7.124943560000    39.421786310000    12.000000000000
         C           14.421257940000    -9.054615780000    38.531863840000    12.000000000000
         C           12.859952610000   -10.439783590000    36.940165890000    12.000000000000

  Charge       = 0
  Multiplicity = 1
  Basis Set: AUG-CC-PVDZ
    Blend: AUG-CC-PVDZ
  Basis Set: (AUG-CC-PVDZ AUX)
    Blend: AUG-CC-PVDZ-JKFIT

    Orbital Energies [Eh]
    ---------------------

    Doubly Occupied:

       1A    -15.636233     2A    -15.592291     3A    -11.279903
       4A    -11.237759     5A    -11.209884     6A     -1.387001
       7A     -1.121894     8A     -1.066928     9A     -0.872759
      10A     -0.837039    11A     -0.757272    12A     -0.645745
      13A     -0.620828    14A     -0.609177    15A     -0.583905
      16A     -0.461413    17A     -0.370715    18A     -0.346055

  @DF-RHF Final Energy:  -224.76243506102654

   => Energetics <=

    Nuclear Repulsion Energy =            166.6286027440887665
    One-Electron Energy =                -633.5084732684786104
    Two-Electron Energy =                 242.1174354633633072
    Total Energy =                       -224.7624350610265367

  Dipole Moment: [D]
     X:     0.7394      Y:     1.4336      Z:     1.7871     Total:     2.4074

    SAPT Results
  --------------------------------------------------------------------------------------------------------
    Electrostatics                 -0.00383341 [mEh]      -0.00240550 [kcal/mol]      -0.01006461 [kJ/mol]
      Elst10,r                     -0.00383341 [mEh]      -0.00240550 [kcal/mol]      -0.01006461 [kJ/mol]

    Exchange                        0.00000000 [mEh]       0.00000000 [kcal/mol]       0.00000000 [kJ/mol]
      Exch10                        0.00000000 [mEh]       0.00000000 [kcal/mol]       0.00000000 [kJ/mol]
      Exch10(S^2)                   0.00000000 [mEh]       0.00000000 [kcal/mol]       0.00000000 [kJ/mol]

    Induction                       0.00002412 [mEh]       0.00001513 [kcal/mol]       0.00006332 [kJ/mol]
      Ind20,r                      -0.00002548 [mEh]      -0.00001599 [kcal/mol]      -0.00006689 [kJ/mol]
      Exch-Ind20,r                  0.00000000 [mEh]       0.00000000 [kcal/mol]       0.00000000 [kJ/mol]
      delta HF,r (2)                0.00004959 [mEh]       0.00003112 [kcal/mol]       0.00013021 [kJ/mol]

    Dispersion                     -0.00031097 [mEh]      -0.00019514 [kcal/mol]      -0.00081645 [kJ/mol]
      Disp20                       -0.00031097 [mEh]      -0.00019514 [kcal/mol]      -0.00081645 [kJ/mol]
      Exch-Disp20                   0.00000000 [mEh]       0.00000000 [kcal/mol]       0.00000000 [kJ/mol]
      Disp20 (SS)                  -0.00015548 [mEh]      -0.00009757 [kcal/mol]      -0.00040823 [kJ/mol]
      Disp20 (OS)                  -0.00015548 [mEh]      -0.00009757 [kcal/mol]      -0.00040823 [kJ/mol]
      Exch-Disp20 (SS)              0.00000000 [mEh]       0.00000000 [kcal/mol]       0.00000000 [kJ/mol]
      Exch-Disp20 (OS)              0.00000000 [mEh]       0.00000000 [kcal/mol]       0.00000000 [kJ/mol]

  Total HF                         -0.00380929 [mEh]      -0.00239036 [kcal/mol]      -0.01000129 [kJ/mol]
  Total SAPT0                      -0.00412026 [mEh]      -0.00258550 [kcal/mol]      -0.01081774 [kJ/mol]

  Special recipe for scaled SAPT0 (see Manual):
    Electrostatics sSAPT0          -0.00383341 [mEh]      -0.00240550 [kcal/mol]      -0.01006461 [kJ/mol]
    Exchange sSAPT0                 0.00000000 [mEh]       0.00000000 [kcal/mol]       0.00000000 [kJ/mol]
    Induction sSAPT0                0.00002412 [mEh]       0.00001513 [kcal/mol]       0.00006332 [kJ/mol]
    Dispersion sSAPT0              -0.00031097 [mEh]      -0.00019514 [kcal/mol]      -0.00081645 [kJ/mol]
  Total sSAPT0                     -0.00412026 [mEh]      -0.00258550 [kcal/mol]      -0.01081774 [kJ/mol]
  --------------------------------------------------------------------------------------------------------

*** Psi4 exiting successfully. Buy a developer a beer!
