                               Psi4 1.4rc3

  ==> Input File <==

--------------------------------------------------------------------------
# PSI4 file produced by CrystaLattE

# Generated from:               pyrazole.xyz
# Psithon input for N-mer:      2mer-0+72
# Number of atoms per monomer:  [9, 9]
# Number of replicas:           1
# COM priority:                 1.530078281271e-04
# Minimum COM separations:      9.894
# Separation priority:          4.042282773548e-04
# Minimum monomer separations:  7.157
# Cutoff priority:              2.988837162237e-05
# Nuclear repulsion energy:     402.50468557352906

memory 7 GB

molecule Dimer_0_72 {
  N            6.27981210      -4.25303372       0.19313865
  N            6.06870777      -2.28125697       1.80544317
  H            3.66871156      -5.64628941      -1.96684001
  H            0.69034521      -2.37545694      -0.42864236
  H            3.35917442       0.17650601       3.09265017
  H            7.35266782      -1.99461311       2.90680702
  C            3.77952586      -1.21508453       1.76858172
  C            2.38242998      -2.55505538       0.04607681
  C            4.01771468      -4.38410490      -0.88761863
--
  N            2.79813836     -21.38696250       7.98741574
  N            2.91700062     -19.34905546       6.45024202
  H            5.47130109     -23.78787247       8.70544609
  H            8.36593765     -21.34533372       5.95030859
  H            5.42951358     -17.63228471       4.04567228
  H            1.45459240     -18.53907841       6.06447669
  C            5.19983702     -19.01887980       5.42119317
  C            6.68282945     -20.94855201       6.31111564
  C            5.12152412     -22.33371982       7.90281359
units = au
no_com
no_reorient
}

set {
  e_convergence 10
  d_convergence 10
  scf_type df
  mp2_type df
  cc_type df
  freeze_core true
}

energy('sapt0/aug-cc-pvdz')

--------------------------------------------------------------------------

  //              Dimer HF             //
    Molecular point group: c1
  Charge       = 0
  Multiplicity = 1
  Basis Set: AUG-CC-PVDZ
    Blend: AUG-CC-PVDZ
  Basis Set: (AUG-CC-PVDZ AUX)
    Blend: AUG-CC-PVDZ-JKFIT
  @DF-RHF Final Energy:  -449.52503438306735
    Total Energy =                       -449.5250343830673501
  //            Monomer A HF           //
    Molecular point group: c1
  Multiplicity = 1
  Basis Set: AUG-CC-PVDZ
    Blend: AUG-CC-PVDZ
  Basis Set: (AUG-CC-PVDZ AUX)
    Blend: AUG-CC-PVDZ-JKFIT
  @DF-RHF Final Energy:  -224.76235257818809
    Total Energy =                       -224.7623525781880858
  //            Monomer B HF           //
    Molecular point group: c1

    Geometry (in Bohr), charge = 0, multiplicity = 1:

       Center              X                  Y                   Z               Mass
    ------------   -----------------  -----------------  -----------------  -----------------
      Gh(N)           6.279812100000    -4.253033720000     0.193138650000    14.003074004430
      Gh(N)           6.068707770000    -2.281256970000     1.805443170000    14.003074004430
      Gh(H)           3.668711560000    -5.646289410000    -1.966840010000     1.007825032230
      Gh(H)           0.690345210000    -2.375456940000    -0.428642360000     1.007825032230
      Gh(H)           3.359174420000     0.176506010000     3.092650170000     1.007825032230
      Gh(H)           7.352667820000    -1.994613110000     2.906807020000     1.007825032230
      Gh(C)           3.779525860000    -1.215084530000     1.768581720000    12.000000000000
      Gh(C)           2.382429980000    -2.555055380000     0.046076810000    12.000000000000
      Gh(C)           4.017714680000    -4.384104900000    -0.887618630000    12.000000000000
         N            2.798138360000   -21.386962500000     7.987415740000    14.003074004430
         N            2.917000620000   -19.349055460000     6.450242020000    14.003074004430
         H            5.471301090000   -23.787872470000     8.705446090000     1.007825032230
         H            8.365937650000   -21.345333720000     5.950308590000     1.007825032230
         H            5.429513580000   -17.632284710000     4.045672280000     1.007825032230
         H            1.454592400000   -18.539078410000     6.064476690000     1.007825032230
         C            5.199837020000   -19.018879800000     5.421193170000    12.000000000000
         C            6.682829450000   -20.948552010000     6.311115640000    12.000000000000
         C            5.121524120000   -22.333719820000     7.902813590000    12.000000000000

  Charge       = 0
  Multiplicity = 1
  Basis Set: AUG-CC-PVDZ
    Blend: AUG-CC-PVDZ
  Basis Set: (AUG-CC-PVDZ AUX)
    Blend: AUG-CC-PVDZ-JKFIT

    Orbital Energies [Eh]
    ---------------------

    Doubly Occupied:

       1A    -15.636233     2A    -15.592291     3A    -11.279893
       4A    -11.237758     5A    -11.209882     6A     -1.387001
       7A     -1.121893     8A     -1.066927     9A     -0.872759
      10A     -0.837040    11A     -0.757273    12A     -0.645745
      13A     -0.620829    14A     -0.609177    15A     -0.583905
      16A     -0.461413    17A     -0.370715    18A     -0.346055

  @DF-RHF Final Energy:  -224.76244703211478

   => Energetics <=

    Nuclear Repulsion Energy =            166.6286029297136793
    One-Electron Energy =                -633.5085241778392628
    Two-Electron Energy =                 242.1174742160108053
    Total Energy =                       -224.7624470321147783

  Dipole Moment: [D]
     X:     0.7395      Y:     1.4336      Z:    -1.7871     Total:     2.4074

    SAPT Results
  --------------------------------------------------------------------------------------------------------
    Electrostatics                 -0.23081852 [mEh]      -0.14484081 [kcal/mol]      -0.60601394 [kJ/mol]
      Elst10,r                     -0.23081852 [mEh]      -0.14484081 [kcal/mol]      -0.60601394 [kJ/mol]

    Exchange                        0.00000288 [mEh]       0.00000181 [kcal/mol]       0.00000756 [kJ/mol]
      Exch10                        0.00000288 [mEh]       0.00000181 [kcal/mol]       0.00000756 [kJ/mol]
      Exch10(S^2)                   0.00000288 [mEh]       0.00000181 [kcal/mol]       0.00000756 [kJ/mol]

    Induction                      -0.00395712 [mEh]      -0.00248313 [kcal/mol]      -0.01038943 [kJ/mol]
      Ind20,r                      -0.00401975 [mEh]      -0.00252243 [kcal/mol]      -0.01055384 [kJ/mol]
      Exch-Ind20,r                  0.00001336 [mEh]       0.00000839 [kcal/mol]       0.00003508 [kJ/mol]
      delta HF,r (2)                0.00004926 [mEh]       0.00003091 [kcal/mol]       0.00012933 [kJ/mol]

    Dispersion                     -0.03149651 [mEh]      -0.01976436 [kcal/mol]      -0.08269408 [kJ/mol]
      Disp20                       -0.03149833 [mEh]      -0.01976550 [kcal/mol]      -0.08269887 [kJ/mol]
      Exch-Disp20                   0.00000182 [mEh]       0.00000114 [kcal/mol]       0.00000479 [kJ/mol]
      Disp20 (SS)                  -0.01574917 [mEh]      -0.00988275 [kcal/mol]      -0.04134943 [kJ/mol]
      Disp20 (OS)                  -0.01574917 [mEh]      -0.00988275 [kcal/mol]      -0.04134943 [kJ/mol]
      Exch-Disp20 (SS)              0.00000155 [mEh]       0.00000097 [kcal/mol]       0.00000408 [kJ/mol]
      Exch-Disp20 (OS)              0.00000027 [mEh]       0.00000017 [kcal/mol]       0.00000071 [kJ/mol]

  Total HF                         -0.23477276 [mEh]      -0.14732213 [kcal/mol]      -0.61639581 [kJ/mol]
  Total SAPT0                      -0.26626928 [mEh]      -0.16708649 [kcal/mol]      -0.69908989 [kJ/mol]

  Special recipe for scaled SAPT0 (see Manual):
    Electrostatics sSAPT0          -0.23081852 [mEh]      -0.14484081 [kcal/mol]      -0.60601394 [kJ/mol]
    Exchange sSAPT0                 0.00000288 [mEh]       0.00000181 [kcal/mol]       0.00000756 [kJ/mol]
    Induction sSAPT0               -0.00395712 [mEh]      -0.00248313 [kcal/mol]      -0.01038943 [kJ/mol]
    Dispersion sSAPT0              -0.03149651 [mEh]      -0.01976436 [kcal/mol]      -0.08269408 [kJ/mol]
  Total sSAPT0                     -0.26626928 [mEh]      -0.16708649 [kcal/mol]      -0.69908989 [kJ/mol]
  --------------------------------------------------------------------------------------------------------

*** Psi4 exiting successfully. Buy a developer a beer!
