                               Psi4 1.4rc3

  ==> Input File <==

--------------------------------------------------------------------------
# PSI4 file produced by CrystaLattE

# Generated from:               pyrazole.xyz
# Psithon input for N-mer:      2mer-0+506
# Number of atoms per monomer:  [9, 9]
# Number of replicas:           1
# COM priority:                 1.501995522100e-05
# Minimum COM separations:      21.448
# Separation priority:          2.267306385698e-05
# Minimum monomer separations:  18.697
# Cutoff priority:              6.417220293842e-07
# Nuclear repulsion energy:     365.20581327474065

memory 7 GB

molecule Dimer_0_506 {
  N            6.27981210      -4.25303372       0.19313865
  N            6.06870777      -2.28125697       1.80544317
  H            3.66871156      -5.64628941      -1.96684001
  H            0.69034521      -2.37545694      -0.42864236
  H            3.35917442       0.17650601       3.09265017
  H            7.35266782      -1.99461311       2.90680702
  C            3.77952586      -1.21508453       1.76858172
  C            2.38242998      -2.55505538       0.04607681
  C            4.01771468      -4.38410490      -0.88761863
--
  N           10.53656684      -9.49302627     -39.93912654
  N           10.65542910      -7.45511923     -38.40195282
  H           13.20972957     -11.89393623     -40.65715690
  H           16.10436613      -9.45139749     -37.90201939
  H           13.16794206      -5.73834848     -35.99738308
  H            9.19302089      -6.64514217     -38.01618750
  C           12.93826550      -7.12494356     -37.37290397
  C           14.42125794      -9.05461578     -38.26282644
  C           12.85995261     -10.43978359     -39.85452439
units = au
no_com
no_reorient
}

set {
  e_convergence 10
  d_convergence 10
  scf_type df
  mp2_type df
  cc_type df
  freeze_core true
}

energy('sapt0/aug-cc-pvdz')

--------------------------------------------------------------------------

  //              Dimer HF             //
    Molecular point group: c1
  Charge       = 0
  Multiplicity = 1
  Basis Set: AUG-CC-PVDZ
    Blend: AUG-CC-PVDZ
  Basis Set: (AUG-CC-PVDZ AUX)
    Blend: AUG-CC-PVDZ-JKFIT
  @DF-RHF Final Energy:  -449.52478724789790
    Total Energy =                       -449.5247872478978479
  //            Monomer A HF           //
    Molecular point group: c1
  Multiplicity = 1
  Basis Set: AUG-CC-PVDZ
    Blend: AUG-CC-PVDZ
  Basis Set: (AUG-CC-PVDZ AUX)
    Blend: AUG-CC-PVDZ-JKFIT
  @DF-RHF Final Energy:  -224.76233952175374
    Total Energy =                       -224.7623395217537450
  //            Monomer B HF           //
    Molecular point group: c1

    Geometry (in Bohr), charge = 0, multiplicity = 1:

       Center              X                  Y                   Z               Mass
    ------------   -----------------  -----------------  -----------------  -----------------
      Gh(N)           6.279812100000    -4.253033720000     0.193138650000    14.003074004430
      Gh(N)           6.068707770000    -2.281256970000     1.805443170000    14.003074004430
      Gh(H)           3.668711560000    -5.646289410000    -1.966840010000     1.007825032230
      Gh(H)           0.690345210000    -2.375456940000    -0.428642360000     1.007825032230
      Gh(H)           3.359174420000     0.176506010000     3.092650170000     1.007825032230
      Gh(H)           7.352667820000    -1.994613110000     2.906807020000     1.007825032230
      Gh(C)           3.779525860000    -1.215084530000     1.768581720000    12.000000000000
      Gh(C)           2.382429980000    -2.555055380000     0.046076810000    12.000000000000
      Gh(C)           4.017714680000    -4.384104900000    -0.887618630000    12.000000000000
         N           10.536566840000    -9.493026270000   -39.939126540000    14.003074004430
         N           10.655429100000    -7.455119230000   -38.401952820000    14.003074004430
         H           13.209729570000   -11.893936230000   -40.657156900000     1.007825032230
         H           16.104366130000    -9.451397490000   -37.902019390000     1.007825032230
         H           13.167942060000    -5.738348480000   -35.997383080000     1.007825032230
         H            9.193020890000    -6.645142170000   -38.016187500000     1.007825032230
         C           12.938265500000    -7.124943560000   -37.372903970000    12.000000000000
         C           14.421257940000    -9.054615780000   -38.262826440000    12.000000000000
         C           12.859952610000   -10.439783590000   -39.854524390000    12.000000000000

  Charge       = 0
  Multiplicity = 1
  Basis Set: AUG-CC-PVDZ
    Blend: AUG-CC-PVDZ
  Basis Set: (AUG-CC-PVDZ AUX)
    Blend: AUG-CC-PVDZ-JKFIT

    Orbital Energies [Eh]
    ---------------------

    Doubly Occupied:

       1A    -15.636233     2A    -15.592291     3A    -11.279903
       4A    -11.237759     5A    -11.209884     6A     -1.387001
       7A     -1.121894     8A     -1.066928     9A     -0.872759
      10A     -0.837039    11A     -0.757272    12A     -0.645745
      13A     -0.620828    14A     -0.609177    15A     -0.583905
      16A     -0.461413    17A     -0.370715    18A     -0.346055

  @DF-RHF Final Energy:  -224.76243506029186

   => Energetics <=

    Nuclear Repulsion Energy =            166.6286027610161398
    One-Electron Energy =                -633.5084732967196715
    Two-Electron Energy =                 242.1174354754116393
    Total Energy =                       -224.7624350602918639

  Dipole Moment: [D]
     X:     0.7394      Y:     1.4336      Z:     1.7871     Total:     2.4074

    SAPT Results
  --------------------------------------------------------------------------------------------------------
    Electrostatics                 -0.01270457 [mEh]      -0.00797224 [kcal/mol]      -0.03335585 [kJ/mol]
      Elst10,r                     -0.01270457 [mEh]      -0.00797224 [kcal/mol]      -0.03335585 [kJ/mol]

    Exchange                        0.00000000 [mEh]       0.00000000 [kcal/mol]       0.00000000 [kJ/mol]
      Exch10                        0.00000000 [mEh]       0.00000000 [kcal/mol]       0.00000000 [kJ/mol]
      Exch10(S^2)                   0.00000000 [mEh]       0.00000000 [kcal/mol]       0.00000000 [kJ/mol]

    Induction                       0.00003872 [mEh]       0.00002430 [kcal/mol]       0.00010166 [kJ/mol]
      Ind20,r                      -0.00002019 [mEh]      -0.00001267 [kcal/mol]      -0.00005302 [kJ/mol]
      Exch-Ind20,r                  0.00000000 [mEh]       0.00000000 [kcal/mol]       0.00000000 [kJ/mol]
      delta HF,r (2)                0.00005891 [mEh]       0.00003697 [kcal/mol]       0.00015467 [kJ/mol]

    Dispersion                     -0.00024825 [mEh]      -0.00015578 [kcal/mol]      -0.00065179 [kJ/mol]
      Disp20                       -0.00024825 [mEh]      -0.00015578 [kcal/mol]      -0.00065179 [kJ/mol]
      Exch-Disp20                   0.00000000 [mEh]       0.00000000 [kcal/mol]       0.00000000 [kJ/mol]
      Disp20 (SS)                  -0.00012413 [mEh]      -0.00007789 [kcal/mol]      -0.00032590 [kJ/mol]
      Disp20 (OS)                  -0.00012413 [mEh]      -0.00007789 [kcal/mol]      -0.00032590 [kJ/mol]
      Exch-Disp20 (SS)              0.00000000 [mEh]       0.00000000 [kcal/mol]       0.00000000 [kJ/mol]
      Exch-Disp20 (OS)              0.00000000 [mEh]       0.00000000 [kcal/mol]       0.00000000 [kJ/mol]

  Total HF                         -0.01266585 [mEh]      -0.00794794 [kcal/mol]      -0.03325419 [kJ/mol]
  Total SAPT0                      -0.01291411 [mEh]      -0.00810372 [kcal/mol]      -0.03390598 [kJ/mol]

  Special recipe for scaled SAPT0 (see Manual):
    Electrostatics sSAPT0          -0.01270457 [mEh]      -0.00797224 [kcal/mol]      -0.03335585 [kJ/mol]
    Exchange sSAPT0                 0.00000000 [mEh]       0.00000000 [kcal/mol]       0.00000000 [kJ/mol]
    Induction sSAPT0                0.00003872 [mEh]       0.00002430 [kcal/mol]       0.00010166 [kJ/mol]
    Dispersion sSAPT0              -0.00024825 [mEh]      -0.00015578 [kcal/mol]      -0.00065179 [kJ/mol]
  Total sSAPT0                     -0.01291411 [mEh]      -0.00810372 [kcal/mol]      -0.03390598 [kJ/mol]
  --------------------------------------------------------------------------------------------------------

*** Psi4 exiting successfully. Buy a developer a beer!
