                               Psi4 1.4rc3

  ==> Input File <==

--------------------------------------------------------------------------
# PSI4 file produced by CrystaLattE

# Generated from:               pyrazole.xyz
# Psithon input for N-mer:      2mer-0+104
# Number of atoms per monomer:  [9, 9]
# Number of replicas:           1
# COM priority:                 5.756188943503e-05
# Minimum COM separations:      13.705
# Separation priority:          1.030408835755e-04
# Minimum monomer separations:  11.288
# Cutoff priority:              4.830730010827e-06
# Nuclear repulsion energy:     383.2883432318929

memory 7 GB

molecule Dimer_0_104 {
  N            6.27981210      -4.25303372       0.19313865
  N            6.06870777      -2.28125697       1.80544317
  H            3.66871156      -5.64628941      -1.96684001
  H            0.69034521      -2.37545694      -0.42864236
  H            3.35917442       0.17650601       3.09265017
  H            7.35266782      -1.99461311       2.90680702
  C            3.77952586      -1.21508453       1.76858172
  C            2.38242998      -2.55505538       0.04607681
  C            4.01771468      -4.38410490      -0.88761863
--
  N           10.53656684      21.49448368      -7.94133892
  N           10.65542910      19.45657665      -6.40416521
  H           13.20972957      23.89539365      -8.65936928
  H           16.10436613      21.45285491      -5.90423177
  H           13.16794206      17.73980589      -3.99959546
  H            9.19302089      18.64659959      -6.01839988
  C           12.93826550      19.12640098      -5.37511636
  C           14.42125794      21.05607319      -6.26503882
  C           12.85995261      22.44124101      -7.85673677
units = au
no_com
no_reorient
}

set {
  e_convergence 10
  d_convergence 10
  scf_type df
  mp2_type df
  cc_type df
  freeze_core true
}

energy('sapt0/aug-cc-pvdz')

--------------------------------------------------------------------------

  //              Dimer HF             //
    Molecular point group: c1
  Charge       = 0
  Multiplicity = 1
  Basis Set: AUG-CC-PVDZ
    Blend: AUG-CC-PVDZ
  Basis Set: (AUG-CC-PVDZ AUX)
    Blend: AUG-CC-PVDZ-JKFIT
  @DF-RHF Final Energy:  -449.52472968777829
    Total Energy =                       -449.5247296877782901
  //            Monomer A HF           //
    Molecular point group: c1
  Multiplicity = 1
  Basis Set: AUG-CC-PVDZ
    Blend: AUG-CC-PVDZ
  Basis Set: (AUG-CC-PVDZ AUX)
    Blend: AUG-CC-PVDZ-JKFIT
  @DF-RHF Final Energy:  -224.76233959686152
    Total Energy =                       -224.7623395968615228
  //            Monomer B HF           //
    Molecular point group: c1

    Geometry (in Bohr), charge = 0, multiplicity = 1:

       Center              X                  Y                   Z               Mass
    ------------   -----------------  -----------------  -----------------  -----------------
      Gh(N)           6.279812100000    -4.253033720000     0.193138650000    14.003074004430
      Gh(N)           6.068707770000    -2.281256970000     1.805443170000    14.003074004430
      Gh(H)           3.668711560000    -5.646289410000    -1.966840010000     1.007825032230
      Gh(H)           0.690345210000    -2.375456940000    -0.428642360000     1.007825032230
      Gh(H)           3.359174420000     0.176506010000     3.092650170000     1.007825032230
      Gh(H)           7.352667820000    -1.994613110000     2.906807020000     1.007825032230
      Gh(C)           3.779525860000    -1.215084530000     1.768581720000    12.000000000000
      Gh(C)           2.382429980000    -2.555055380000     0.046076810000    12.000000000000
      Gh(C)           4.017714680000    -4.384104900000    -0.887618630000    12.000000000000
         N           10.536566840000    21.494483680000    -7.941338920000    14.003074004430
         N           10.655429100000    19.456576650000    -6.404165210000    14.003074004430
         H           13.209729570000    23.895393650000    -8.659369280000     1.007825032230
         H           16.104366130000    21.452854910000    -5.904231770000     1.007825032230
         H           13.167942060000    17.739805890000    -3.999595460000     1.007825032230
         H            9.193020890000    18.646599590000    -6.018399880000     1.007825032230
         C           12.938265500000    19.126400980000    -5.375116360000    12.000000000000
         C           14.421257940000    21.056073190000    -6.265038820000    12.000000000000
         C           12.859952610000    22.441241010000    -7.856736770000    12.000000000000

  Charge       = 0
  Multiplicity = 1
  Basis Set: AUG-CC-PVDZ
    Blend: AUG-CC-PVDZ
  Basis Set: (AUG-CC-PVDZ AUX)
    Blend: AUG-CC-PVDZ-JKFIT

    Orbital Energies [Eh]
    ---------------------

    Doubly Occupied:

       1A    -15.636233     2A    -15.592291     3A    -11.279903
       4A    -11.237759     5A    -11.209884     6A     -1.387001
       7A     -1.121894     8A     -1.066928     9A     -0.872759
      10A     -0.837039    11A     -0.757272    12A     -0.645745
      13A     -0.620828    14A     -0.609177    15A     -0.583905
      16A     -0.461413    17A     -0.370715    18A     -0.346055

  @DF-RHF Final Energy:  -224.76243510723188

   => Energetics <=

    Nuclear Repulsion Energy =            166.6286028932403269
    One-Electron Energy =                -633.5084738641759259
    Two-Electron Energy =                 242.1174358637037187
    Total Energy =                       -224.7624351072318802

  Dipole Moment: [D]
     X:     0.7394      Y:    -1.4336      Z:     1.7871     Total:     2.4074

    SAPT Results
  --------------------------------------------------------------------------------------------------------
    Electrostatics                  0.04534332 [mEh]       0.02845336 [kcal/mol]       0.11904887 [kJ/mol]
      Elst10,r                      0.04534332 [mEh]       0.02845336 [kcal/mol]       0.11904887 [kJ/mol]

    Exchange                        0.00000012 [mEh]       0.00000007 [kcal/mol]       0.00000031 [kJ/mol]
      Exch10                        0.00000012 [mEh]       0.00000007 [kcal/mol]       0.00000031 [kJ/mol]
      Exch10(S^2)                   0.00000012 [mEh]       0.00000007 [kcal/mol]       0.00000031 [kJ/mol]

    Induction                      -0.00032712 [mEh]      -0.00020527 [kcal/mol]      -0.00085886 [kJ/mol]
      Ind20,r                      -0.00038455 [mEh]      -0.00024131 [kcal/mol]      -0.00100965 [kJ/mol]
      Exch-Ind20,r                  0.00000019 [mEh]       0.00000012 [kcal/mol]       0.00000050 [kJ/mol]
      delta HF,r (2)                0.00005724 [mEh]       0.00003592 [kcal/mol]       0.00015028 [kJ/mol]

    Dispersion                     -0.00400692 [mEh]      -0.00251438 [kcal/mol]      -0.01052017 [kJ/mol]
      Disp20                       -0.00400693 [mEh]      -0.00251439 [kcal/mol]      -0.01052020 [kJ/mol]
      Exch-Disp20                   0.00000001 [mEh]       0.00000001 [kcal/mol]       0.00000002 [kJ/mol]
      Disp20 (SS)                  -0.00200347 [mEh]      -0.00125719 [kcal/mol]      -0.00526010 [kJ/mol]
      Disp20 (OS)                  -0.00200347 [mEh]      -0.00125719 [kcal/mol]      -0.00526010 [kJ/mol]
      Exch-Disp20 (SS)              0.00000001 [mEh]       0.00000000 [kcal/mol]       0.00000002 [kJ/mol]
      Exch-Disp20 (OS)              0.00000000 [mEh]       0.00000000 [kcal/mol]       0.00000000 [kJ/mol]

  Total HF                          0.04501632 [mEh]       0.02824816 [kcal/mol]       0.11819032 [kJ/mol]
  Total SAPT0                       0.04100939 [mEh]       0.02573378 [kcal/mol]       0.10767015 [kJ/mol]

  Special recipe for scaled SAPT0 (see Manual):
    Electrostatics sSAPT0           0.04534332 [mEh]       0.02845336 [kcal/mol]       0.11904887 [kJ/mol]
    Exchange sSAPT0                 0.00000012 [mEh]       0.00000007 [kcal/mol]       0.00000031 [kJ/mol]
    Induction sSAPT0               -0.00032712 [mEh]      -0.00020527 [kcal/mol]      -0.00085886 [kJ/mol]
    Dispersion sSAPT0              -0.00400692 [mEh]      -0.00251438 [kcal/mol]      -0.01052017 [kJ/mol]
  Total sSAPT0                      0.04100939 [mEh]       0.02573378 [kcal/mol]       0.10767015 [kJ/mol]
  --------------------------------------------------------------------------------------------------------

*** Psi4 exiting successfully. Buy a developer a beer!
