                               Psi4 1.4rc3

  ==> Input File <==

--------------------------------------------------------------------------
# PSI4 file produced by CrystaLattE

# Generated from:               pyrazole.xyz
# Psithon input for N-mer:      2mer-0+9
# Number of atoms per monomer:  [9, 9]
# Number of replicas:           2
# COM priority:                 2.395501746827e-04
# Minimum COM separations:      8.521
# Separation priority:          8.360244599156e-04
# Minimum monomer separations:  5.617
# Cutoff priority:              7.875751028975e-05
# Nuclear repulsion energy:     413.9231077531199

memory 7 GB

molecule Dimer_0_9 {
  N            6.27981210      -4.25303372       0.19313865
  N            6.06870777      -2.28125697       1.80544317
  H            3.66871156      -5.64628941      -1.96684001
  H            0.69034521      -2.37545694      -0.42864236
  H            3.35917442       0.17650601       3.09265017
  H            7.35266782      -1.99461311       2.90680702
  C            3.77952586      -1.21508453       1.76858172
  C            2.38242998      -2.55505538       0.04607681
  C            4.01771468      -4.38410490      -0.88761863
--
  N           -1.45861638       7.64090252      -6.54661936
  N           -1.66972071       9.61267926      -8.15892388
  H           -4.06971692       6.24764682      -4.38664070
  H           -7.04808328       9.51847929      -5.92483835
  H           -4.37925406      12.07044225      -9.44613088
  H           -0.38576066       9.89932313      -9.26028773
  C           -3.95890263      10.67885171      -8.12206243
  C           -5.35599851       9.33888085      -6.39955752
  C           -3.72071380       7.50983134      -5.46586208
units = au
no_com
no_reorient
}

set {
  e_convergence 10
  d_convergence 10
  scf_type df
  mp2_type df
  cc_type df
  freeze_core true
}

energy('sapt0/aug-cc-pvdz')

--------------------------------------------------------------------------

  //              Dimer HF             //
    Molecular point group: c1
  Charge       = 0
  Multiplicity = 1
  Basis Set: AUG-CC-PVDZ
    Blend: AUG-CC-PVDZ
  Basis Set: (AUG-CC-PVDZ AUX)
    Blend: AUG-CC-PVDZ-JKFIT
  @DF-RHF Final Energy:  -449.52468985044919
    Total Energy =                       -449.5246898504492492
  //            Monomer A HF           //
    Molecular point group: c1
  Multiplicity = 1
  Basis Set: AUG-CC-PVDZ
    Blend: AUG-CC-PVDZ
  Basis Set: (AUG-CC-PVDZ AUX)
    Blend: AUG-CC-PVDZ-JKFIT
  @DF-RHF Final Energy:  -224.76237568333426
    Total Energy =                       -224.7623756833342554
  //            Monomer B HF           //
    Molecular point group: c1

    Geometry (in Bohr), charge = 0, multiplicity = 1:

       Center              X                  Y                   Z               Mass
    ------------   -----------------  -----------------  -----------------  -----------------
      Gh(N)           6.279812100000    -4.253033720000     0.193138650000    14.003074004430
      Gh(N)           6.068707770000    -2.281256970000     1.805443170000    14.003074004430
      Gh(H)           3.668711560000    -5.646289410000    -1.966840010000     1.007825032230
      Gh(H)           0.690345210000    -2.375456940000    -0.428642360000     1.007825032230
      Gh(H)           3.359174420000     0.176506010000     3.092650170000     1.007825032230
      Gh(H)           7.352667820000    -1.994613110000     2.906807020000     1.007825032230
      Gh(C)           3.779525860000    -1.215084530000     1.768581720000    12.000000000000
      Gh(C)           2.382429980000    -2.555055380000     0.046076810000    12.000000000000
      Gh(C)           4.017714680000    -4.384104900000    -0.887618630000    12.000000000000
         N           -1.458616380000     7.640902520000    -6.546619360000    14.003074004430
         N           -1.669720710000     9.612679260000    -8.158923880000    14.003074004430
         H           -4.069716920000     6.247646820000    -4.386640700000     1.007825032230
         H           -7.048083280000     9.518479290000    -5.924838350000     1.007825032230
         H           -4.379254060000    12.070442250000    -9.446130880000     1.007825032230
         H           -0.385760660000     9.899323130000    -9.260287730000     1.007825032230
         C           -3.958902630000    10.678851710000    -8.122062430000    12.000000000000
         C           -5.355998510000     9.338880850000    -6.399557520000    12.000000000000
         C           -3.720713800000     7.509831340000    -5.465862080000    12.000000000000

  Charge       = 0
  Multiplicity = 1
  Basis Set: AUG-CC-PVDZ
    Blend: AUG-CC-PVDZ
  Basis Set: (AUG-CC-PVDZ AUX)
    Blend: AUG-CC-PVDZ-JKFIT

    Orbital Energies [Eh]
    ---------------------

    Doubly Occupied:

       1A    -15.636221     2A    -15.592318     3A    -11.279893
       4A    -11.237762     5A    -11.209878     6A     -1.386921
       7A     -1.121901     8A     -1.066899     9A     -0.872767
      10A     -0.837067    11A     -0.757293    12A     -0.645748
      13A     -0.620838    14A     -0.609140    15A     -0.583921
      16A     -0.461405    17A     -0.370721    18A     -0.346047

  @DF-RHF Final Energy:  -224.76239118548071

   => Energetics <=

    Nuclear Repulsion Energy =            166.6240563223170739
    One-Electron Energy =                -633.4994167211583544
    Two-Electron Energy =                 242.1129692133605715
    Total Energy =                       -224.7623911854807091

  Dipole Moment: [D]
     X:    -1.0231      Y:     1.6052      Z:    -1.4731     Total:     2.4070

    SAPT Results
  --------------------------------------------------------------------------------------------------------
    Electrostatics                  0.08447823 [mEh]       0.05301089 [kcal/mol]       0.22179757 [kJ/mol]
      Elst10,r                      0.08447823 [mEh]       0.05301089 [kcal/mol]       0.22179757 [kJ/mol]

    Exchange                        0.00010210 [mEh]       0.00006407 [kcal/mol]       0.00026805 [kJ/mol]
      Exch10                        0.00010210 [mEh]       0.00006407 [kcal/mol]       0.00026805 [kJ/mol]
      Exch10(S^2)                   0.00010210 [mEh]       0.00006407 [kcal/mol]       0.00026805 [kJ/mol]

    Induction                      -0.00756196 [mEh]      -0.00474520 [kcal/mol]      -0.01985393 [kJ/mol]
      Ind20,r                      -0.00819397 [mEh]      -0.00514180 [kcal/mol]      -0.02151328 [kJ/mol]
      Exch-Ind20,r                  0.00007203 [mEh]       0.00004520 [kcal/mol]       0.00018911 [kJ/mol]
      delta HF,r (2)                0.00055998 [mEh]       0.00035140 [kcal/mol]       0.00147024 [kJ/mol]

    Dispersion                     -0.09362808 [mEh]      -0.05875251 [kcal/mol]      -0.24582049 [kJ/mol]
      Disp20                       -0.09366490 [mEh]      -0.05877561 [kcal/mol]      -0.24591717 [kJ/mol]
      Exch-Disp20                   0.00003682 [mEh]       0.00002311 [kcal/mol]       0.00009667 [kJ/mol]
      Disp20 (SS)                  -0.04683245 [mEh]      -0.02938781 [kcal/mol]      -0.12295858 [kJ/mol]
      Disp20 (OS)                  -0.04683245 [mEh]      -0.02938781 [kcal/mol]      -0.12295858 [kJ/mol]
      Exch-Disp20 (SS)              0.00002752 [mEh]       0.00001727 [kcal/mol]       0.00007225 [kJ/mol]
      Exch-Disp20 (OS)              0.00000930 [mEh]       0.00000584 [kcal/mol]       0.00002442 [kJ/mol]

  Total HF                          0.07701837 [mEh]       0.04832975 [kcal/mol]       0.20221169 [kJ/mol]
  Total SAPT0                      -0.01660972 [mEh]      -0.01042275 [kcal/mol]      -0.04360880 [kJ/mol]

  Special recipe for scaled SAPT0 (see Manual):
    Electrostatics sSAPT0           0.08447823 [mEh]       0.05301089 [kcal/mol]       0.22179757 [kJ/mol]
    Exchange sSAPT0                 0.00010210 [mEh]       0.00006407 [kcal/mol]       0.00026805 [kJ/mol]
    Induction sSAPT0               -0.00756196 [mEh]      -0.00474520 [kcal/mol]      -0.01985393 [kJ/mol]
    Dispersion sSAPT0              -0.09362808 [mEh]      -0.05875251 [kcal/mol]      -0.24582049 [kJ/mol]
  Total sSAPT0                     -0.01660972 [mEh]      -0.01042275 [kcal/mol]      -0.04360880 [kJ/mol]
  --------------------------------------------------------------------------------------------------------

*** Psi4 exiting successfully. Buy a developer a beer!
