                               Psi4 1.4rc3

  ==> Input File <==

--------------------------------------------------------------------------
# PSI4 file produced by CrystaLattE

# Generated from:               pyrazole.xyz
# Psithon input for N-mer:      2mer-0+4
# Number of atoms per monomer:  [9, 9]
# Number of replicas:           1
# COM priority:                 8.041232607012e-04
# Minimum COM separations:      5.691
# Separation priority:          6.089562129497e-03
# Minimum monomer separations:  2.898
# Cutoff priority:              1.112025520843e-03
# Nuclear repulsion energy:     456.64051143967333

memory 7 GB

molecule Dimer_0_4 {
  N            6.27981210      -4.25303372       0.19313865
  N            6.06870777      -2.28125697       1.80544317
  H            3.66871156      -5.64628941      -1.96684001
  H            0.69034521      -2.37545694      -0.42864236
  H            3.35917442       0.17650601       3.09265017
  H            7.35266782      -1.99461311       2.90680702
  C            3.77952586      -1.21508453       1.76858172
  C            2.38242998      -2.55505538       0.04607681
  C            4.01771468      -4.38410490      -0.88761863
--
  N           -4.94029013      -2.29338878      -7.94133892
  N           -4.82142787      -4.33129582      -6.40416521
  H           -2.26712739       0.10752118      -8.65936928
  H            0.62750917      -2.33501756      -5.90423177
  H           -2.30891491      -6.04806657      -3.99959546
  H           -6.28383608      -5.14127288      -6.01839988
  C           -2.53859146      -4.66147149      -5.37511636
  C           -1.05559903      -2.73179927      -6.26503882
  C           -2.61690436      -1.34663146      -7.85673677
units = au
no_com
no_reorient
}

set {
  e_convergence 10
  d_convergence 10
  scf_type df
  mp2_type df
  cc_type df
  freeze_core true
}

energy('sapt0/aug-cc-pvdz')

--------------------------------------------------------------------------

  //              Dimer HF             //
    Molecular point group: c1
  Charge       = 0
  Multiplicity = 1
  Basis Set: AUG-CC-PVDZ
    Blend: AUG-CC-PVDZ
  Basis Set: (AUG-CC-PVDZ AUX)
    Blend: AUG-CC-PVDZ-JKFIT
  @DF-RHF Final Energy:  -449.52501885504682
    Total Energy =                       -449.5250188550468238
  //            Monomer A HF           //
    Molecular point group: c1
  Multiplicity = 1
  Basis Set: AUG-CC-PVDZ
    Blend: AUG-CC-PVDZ
  Basis Set: (AUG-CC-PVDZ AUX)
    Blend: AUG-CC-PVDZ-JKFIT
  @DF-RHF Final Energy:  -224.76272472779678
    Total Energy =                       -224.7627247277967797
  //            Monomer B HF           //
    Molecular point group: c1

    Geometry (in Bohr), charge = 0, multiplicity = 1:

       Center              X                  Y                   Z               Mass
    ------------   -----------------  -----------------  -----------------  -----------------
      Gh(N)           6.279812100000    -4.253033720000     0.193138650000    14.003074004430
      Gh(N)           6.068707770000    -2.281256970000     1.805443170000    14.003074004430
      Gh(H)           3.668711560000    -5.646289410000    -1.966840010000     1.007825032230
      Gh(H)           0.690345210000    -2.375456940000    -0.428642360000     1.007825032230
      Gh(H)           3.359174420000     0.176506010000     3.092650170000     1.007825032230
      Gh(H)           7.352667820000    -1.994613110000     2.906807020000     1.007825032230
      Gh(C)           3.779525860000    -1.215084530000     1.768581720000    12.000000000000
      Gh(C)           2.382429980000    -2.555055380000     0.046076810000    12.000000000000
      Gh(C)           4.017714680000    -4.384104900000    -0.887618630000    12.000000000000
         N           -4.940290130000    -2.293388780000    -7.941338920000    14.003074004430
         N           -4.821427870000    -4.331295820000    -6.404165210000    14.003074004430
         H           -2.267127390000     0.107521180000    -8.659369280000     1.007825032230
         H            0.627509170000    -2.335017560000    -5.904231770000     1.007825032230
         H           -2.308914910000    -6.048066570000    -3.999595460000     1.007825032230
         H           -6.283836080000    -5.141272880000    -6.018399880000     1.007825032230
         C           -2.538591460000    -4.661471490000    -5.375116360000    12.000000000000
         C           -1.055599030000    -2.731799270000    -6.265038820000    12.000000000000
         C           -2.616904360000    -1.346631460000    -7.856736770000    12.000000000000

  Charge       = 0
  Multiplicity = 1
  Basis Set: AUG-CC-PVDZ
    Blend: AUG-CC-PVDZ
  Basis Set: (AUG-CC-PVDZ AUX)
    Blend: AUG-CC-PVDZ-JKFIT

    Orbital Energies [Eh]
    ---------------------

    Doubly Occupied:

       1A    -15.636251     2A    -15.592293     3A    -11.279787
       4A    -11.237738     5A    -11.209737     6A     -1.386985
       7A     -1.121883     8A     -1.066889     9A     -0.872751
      10A     -0.837013    11A     -0.757273    12A     -0.645745
      13A     -0.620810    14A     -0.609184    15A     -0.583867
      16A     -0.461408    17A     -0.370714    18A     -0.346048

  @DF-RHF Final Energy:  -224.76285595985277

   => Energetics <=

    Nuclear Repulsion Energy =            166.6286027655152964
    One-Electron Energy =                -633.5101643909224549
    Two-Electron Energy =                 242.1187056655543586
    Total Energy =                       -224.7628559598527715

  Dipole Moment: [D]
     X:     0.7397      Y:    -1.4319      Z:     1.7860     Total:     2.4057

    SAPT Results
  --------------------------------------------------------------------------------------------------------
    Electrostatics                 -0.61388322 [mEh]      -0.38521754 [kcal/mol]      -1.61175018 [kJ/mol]
      Elst10,r                     -0.61388322 [mEh]      -0.38521754 [kcal/mol]      -1.61175018 [kJ/mol]

    Exchange                        1.33812411 [mEh]       0.83968555 [kcal/mol]       3.51324436 [kJ/mol]
      Exch10                        1.33812411 [mEh]       0.83968555 [kcal/mol]       3.51324436 [kJ/mol]
      Exch10(S^2)                   1.33696228 [mEh]       0.83895650 [kcal/mol]       3.51019399 [kJ/mol]

    Induction                      -0.16240828 [mEh]      -0.10191274 [kcal/mol]      -0.42640289 [kJ/mol]
      Ind20,r                      -0.39882836 [mEh]      -0.25026857 [kcal/mol]      -1.04712371 [kJ/mol]
      Exch-Ind20,r                  0.33571749 [mEh]       0.21066591 [kcal/mol]       0.88142616 [kJ/mol]
      delta HF,r (2)               -0.09929742 [mEh]      -0.06231007 [kcal/mol]      -0.26070534 [kJ/mol]

    Dispersion                     -2.46042628 [mEh]      -1.54394080 [kcal/mol]      -6.45984831 [kJ/mol]
      Disp20                       -2.62224778 [mEh]      -1.64548532 [kcal/mol]      -6.88471059 [kJ/mol]
      Exch-Disp20                   0.16182150 [mEh]       0.10154452 [kcal/mol]       0.42486228 [kJ/mol]
      Disp20 (SS)                  -1.31112389 [mEh]      -0.82274266 [kcal/mol]      -3.44235529 [kJ/mol]
      Disp20 (OS)                  -1.31112389 [mEh]      -0.82274266 [kcal/mol]      -3.44235529 [kJ/mol]
      Exch-Disp20 (SS)              0.10691990 [mEh]       0.06709325 [kcal/mol]       0.28071816 [kJ/mol]
      Exch-Disp20 (OS)              0.05490159 [mEh]       0.03445127 [kcal/mol]       0.14414412 [kJ/mol]

  Total HF                          0.56183260 [mEh]       0.35255528 [kcal/mol]       1.47509130 [kJ/mol]
  Total SAPT0                      -1.89859368 [mEh]      -1.19138552 [kcal/mol]      -4.98475701 [kJ/mol]

  Special recipe for scaled SAPT0 (see Manual):
    Electrostatics sSAPT0          -0.61388322 [mEh]      -0.38521754 [kcal/mol]      -1.61175018 [kJ/mol]
    Exchange sSAPT0                 1.33812411 [mEh]       0.83968555 [kcal/mol]       3.51324436 [kJ/mol]
    Induction sSAPT0               -0.16153230 [mEh]      -0.10136305 [kcal/mol]      -0.42410300 [kJ/mol]
    Dispersion sSAPT0              -2.46000404 [mEh]      -1.54367584 [kcal/mol]      -6.45873972 [kJ/mol]
  Total sSAPT0                     -1.89729546 [mEh]      -1.19057088 [kcal/mol]      -4.98134854 [kJ/mol]
  --------------------------------------------------------------------------------------------------------

*** Psi4 exiting successfully. Buy a developer a beer!
