                               Psi4 1.4rc3

  ==> Input File <==

--------------------------------------------------------------------------
# PSI4 file produced by CrystaLattE

# Generated from:               pyrazole.xyz
# Psithon input for N-mer:      2mer-0+51
# Number of atoms per monomer:  [9, 9]
# Number of replicas:           1
# COM priority:                 1.785921416989e-04
# Minimum COM separations:      9.397
# Separation priority:          8.253674559381e-04
# Minimum monomer separations:  5.641
# Cutoff priority:              7.742177448229e-05
# Nuclear repulsion energy:     406.6828701588126

memory 7 GB

molecule Dimer_0_51 {
  N            6.27981210      -4.25303372       0.19313865
  N            6.06870777      -2.28125697       1.80544317
  H            3.66871156      -5.64628941      -1.96684001
  H            0.69034521      -2.37545694      -0.42864236
  H            3.35917442       0.17650601       3.09265017
  H            7.35266782      -1.99461311       2.90680702
  C            3.77952586      -1.21508453       1.76858172
  C            2.38242998      -2.55505538       0.04607681
  C            4.01771468      -4.38410490      -0.88761863
--
  N            2.79813836     -14.18732502     -11.21125683
  N            2.91700062     -16.22523205     -12.74843055
  H            5.47130109     -11.78641505     -10.49322648
  H            8.36593765     -14.22895380     -13.24836399
  H            5.42951358     -17.94200281     -15.15300030
  H            1.45459240     -17.03520911     -13.13419588
  C            5.19983702     -16.55540772     -13.77747940
  C            6.68282945     -14.62573551     -12.88755693
  C            5.12152412     -13.24056769     -11.29585899
units = au
no_com
no_reorient
}

set {
  e_convergence 10
  d_convergence 10
  scf_type df
  mp2_type df
  cc_type df
  freeze_core true
}

energy('sapt0/aug-cc-pvdz')

--------------------------------------------------------------------------

  //              Dimer HF             //
    Molecular point group: c1
  Charge       = 0
  Multiplicity = 1
  Basis Set: AUG-CC-PVDZ
    Blend: AUG-CC-PVDZ
  Basis Set: (AUG-CC-PVDZ AUX)
    Blend: AUG-CC-PVDZ-JKFIT
  @DF-RHF Final Energy:  -449.52492198356850
    Total Energy =                       -449.5249219835684471
  //            Monomer A HF           //
    Molecular point group: c1
  Multiplicity = 1
  Basis Set: AUG-CC-PVDZ
    Blend: AUG-CC-PVDZ
  Basis Set: (AUG-CC-PVDZ AUX)
    Blend: AUG-CC-PVDZ-JKFIT
  @DF-RHF Final Energy:  -224.76238344986623
    Total Energy =                       -224.7623834498662347
  //            Monomer B HF           //
    Molecular point group: c1

    Geometry (in Bohr), charge = 0, multiplicity = 1:

       Center              X                  Y                   Z               Mass
    ------------   -----------------  -----------------  -----------------  -----------------
      Gh(N)           6.279812100000    -4.253033720000     0.193138650000    14.003074004430
      Gh(N)           6.068707770000    -2.281256970000     1.805443170000    14.003074004430
      Gh(H)           3.668711560000    -5.646289410000    -1.966840010000     1.007825032230
      Gh(H)           0.690345210000    -2.375456940000    -0.428642360000     1.007825032230
      Gh(H)           3.359174420000     0.176506010000     3.092650170000     1.007825032230
      Gh(H)           7.352667820000    -1.994613110000     2.906807020000     1.007825032230
      Gh(C)           3.779525860000    -1.215084530000     1.768581720000    12.000000000000
      Gh(C)           2.382429980000    -2.555055380000     0.046076810000    12.000000000000
      Gh(C)           4.017714680000    -4.384104900000    -0.887618630000    12.000000000000
         N            2.798138360000   -14.187325020000   -11.211256830000    14.003074004430
         N            2.917000620000   -16.225232050000   -12.748430550000    14.003074004430
         H            5.471301090000   -11.786415050000   -10.493226480000     1.007825032230
         H            8.365937650000   -14.228953800000   -13.248363990000     1.007825032230
         H            5.429513580000   -17.942002810000   -15.153000300000     1.007825032230
         H            1.454592400000   -17.035209110000   -13.134195880000     1.007825032230
         C            5.199837020000   -16.555407720000   -13.777479400000    12.000000000000
         C            6.682829450000   -14.625735510000   -12.887556930000    12.000000000000
         C            5.121524120000   -13.240567690000   -11.295858990000    12.000000000000

  Charge       = 0
  Multiplicity = 1
  Basis Set: AUG-CC-PVDZ
    Blend: AUG-CC-PVDZ
  Basis Set: (AUG-CC-PVDZ AUX)
    Blend: AUG-CC-PVDZ-JKFIT

    Orbital Energies [Eh]
    ---------------------

    Doubly Occupied:

       1A    -15.636231     2A    -15.592293     3A    -11.279903
       4A    -11.237738     5A    -11.209877     6A     -1.387001
       7A     -1.121893     8A     -1.066927     9A     -0.872759
      10A     -0.837046    11A     -0.757273    12A     -0.645748
      13A     -0.620832    14A     -0.609177    15A     -0.583906
      16A     -0.461412    17A     -0.370715    18A     -0.346054

  @DF-RHF Final Energy:  -224.76248588204723

   => Energetics <=

    Nuclear Repulsion Energy =            166.6286029454876711
    One-Electron Energy =                -633.5086078201655937
    Two-Electron Energy =                 242.1175189926306928
    Total Energy =                       -224.7624858820472298

  Dipole Moment: [D]
     X:     0.7395      Y:    -1.4335      Z:    -1.7869     Total:     2.4072

    SAPT Results
  --------------------------------------------------------------------------------------------------------
    Electrostatics                 -0.04993953 [mEh]      -0.03133753 [kcal/mol]      -0.13111623 [kJ/mol]
      Elst10,r                     -0.04993953 [mEh]      -0.03133753 [kcal/mol]      -0.13111623 [kJ/mol]

    Exchange                        0.00002646 [mEh]       0.00001661 [kcal/mol]       0.00006948 [kJ/mol]
      Exch10                        0.00002646 [mEh]       0.00001661 [kcal/mol]       0.00006948 [kJ/mol]
      Exch10(S^2)                   0.00002646 [mEh]       0.00001661 [kcal/mol]       0.00006948 [kJ/mol]

    Induction                      -0.00273859 [mEh]      -0.00171849 [kcal/mol]      -0.00719016 [kJ/mol]
      Ind20,r                      -0.00331488 [mEh]      -0.00208012 [kcal/mol]      -0.00870322 [kJ/mol]
      Exch-Ind20,r                  0.00004751 [mEh]       0.00002981 [kcal/mol]       0.00012474 [kJ/mol]
      delta HF,r (2)                0.00052879 [mEh]       0.00033182 [kcal/mol]       0.00138833 [kJ/mol]

    Dispersion                     -0.05428044 [mEh]      -0.03406149 [kcal/mol]      -0.14251328 [kJ/mol]
      Disp20                       -0.05428473 [mEh]      -0.03406418 [kcal/mol]      -0.14252454 [kJ/mol]
      Exch-Disp20                   0.00000429 [mEh]       0.00000269 [kcal/mol]       0.00001126 [kJ/mol]
      Disp20 (SS)                  -0.02714237 [mEh]      -0.01703209 [kcal/mol]      -0.07126227 [kJ/mol]
      Disp20 (OS)                  -0.02714237 [mEh]      -0.01703209 [kcal/mol]      -0.07126227 [kJ/mol]
      Exch-Disp20 (SS)              0.00000352 [mEh]       0.00000221 [kcal/mol]       0.00000923 [kJ/mol]
      Exch-Disp20 (OS)              0.00000077 [mEh]       0.00000048 [kcal/mol]       0.00000203 [kJ/mol]

  Total HF                         -0.05265166 [mEh]      -0.03303941 [kcal/mol]      -0.13823690 [kJ/mol]
  Total SAPT0                      -0.10693210 [mEh]      -0.06710090 [kcal/mol]      -0.28075018 [kJ/mol]

  Special recipe for scaled SAPT0 (see Manual):
    Electrostatics sSAPT0          -0.04993953 [mEh]      -0.03133753 [kcal/mol]      -0.13111623 [kJ/mol]
    Exchange sSAPT0                 0.00002646 [mEh]       0.00001661 [kcal/mol]       0.00006948 [kJ/mol]
    Induction sSAPT0               -0.00273859 [mEh]      -0.00171849 [kcal/mol]      -0.00719016 [kJ/mol]
    Dispersion sSAPT0              -0.05428044 [mEh]      -0.03406149 [kcal/mol]      -0.14251328 [kJ/mol]
  Total sSAPT0                     -0.10693210 [mEh]      -0.06710090 [kcal/mol]      -0.28075018 [kJ/mol]
  --------------------------------------------------------------------------------------------------------

*** Psi4 exiting successfully. Buy a developer a beer!
