                               Psi4 1.4rc3

  ==> Input File <==

--------------------------------------------------------------------------
# PSI4 file produced by CrystaLattE

# Generated from:               pyrazole.xyz
# Psithon input for N-mer:      2mer-0+114
# Number of atoms per monomer:  [9, 9]
# Number of replicas:           2
# COM priority:                 5.961700912547e-05
# Minimum COM separations:      13.546
# Separation priority:          1.027496849124e-04
# Minimum monomer separations:  11.298
# Cutoff priority:              4.812536078642e-06
# Nuclear repulsion energy:     383.7590501592321

memory 7 GB

molecule Dimer_0_114 {
  N            6.27981210      -4.25303372       0.19313865
  N            6.06870777      -2.28125697       1.80544317
  H            3.66871156      -5.64628941      -1.96684001
  H            0.69034521      -2.37545694      -0.42864236
  H            3.35917442       0.17650601       3.09265017
  H            7.35266782      -1.99461311       2.90680702
  C            3.77952586      -1.21508453       1.76858172
  C            2.38242998      -2.55505538       0.04607681
  C            4.01771468      -4.38410490      -0.88761863
--
  N            6.27981210      -4.25303372     -25.40509145
  N            6.06870777      -2.28125697     -23.79278693
  H            3.66871156      -5.64628941     -27.56507010
  H            0.69034521      -2.37545694     -26.02687246
  H            3.35917442       0.17650601     -22.50557993
  H            7.35266782      -1.99461311     -22.69142308
  C            3.77952586      -1.21508453     -23.82964838
  C            2.38242998      -2.55505538     -25.55215328
  C            4.01771468      -4.38410490     -26.48584872
units = au
no_com
no_reorient
}

set {
  e_convergence 10
  d_convergence 10
  scf_type df
  mp2_type df
  cc_type df
  freeze_core true
}

energy('sapt0/aug-cc-pvdz')

--------------------------------------------------------------------------

  //              Dimer HF             //
    Molecular point group: c1
  Charge       = 0
  Multiplicity = 1
  Basis Set: AUG-CC-PVDZ
    Blend: AUG-CC-PVDZ
  Basis Set: (AUG-CC-PVDZ AUX)
    Blend: AUG-CC-PVDZ-JKFIT
  @DF-RHF Final Energy:  -449.52470074324674
    Total Energy =                       -449.5247007432467399
  //            Monomer A HF           //
    Molecular point group: c1
  Multiplicity = 1
  Basis Set: AUG-CC-PVDZ
    Blend: AUG-CC-PVDZ
  Basis Set: (AUG-CC-PVDZ AUX)
    Blend: AUG-CC-PVDZ-JKFIT
  @DF-RHF Final Energy:  -224.76233960395362
    Total Energy =                       -224.7623396039536203
  //            Monomer B HF           //
    Molecular point group: c1

    Geometry (in Bohr), charge = 0, multiplicity = 1:

       Center              X                  Y                   Z               Mass
    ------------   -----------------  -----------------  -----------------  -----------------
      Gh(N)           6.279812100000    -4.253033720000     0.193138650000    14.003074004430
      Gh(N)           6.068707770000    -2.281256970000     1.805443170000    14.003074004430
      Gh(H)           3.668711560000    -5.646289410000    -1.966840010000     1.007825032230
      Gh(H)           0.690345210000    -2.375456940000    -0.428642360000     1.007825032230
      Gh(H)           3.359174420000     0.176506010000     3.092650170000     1.007825032230
      Gh(H)           7.352667820000    -1.994613110000     2.906807020000     1.007825032230
      Gh(C)           3.779525860000    -1.215084530000     1.768581720000    12.000000000000
      Gh(C)           2.382429980000    -2.555055380000     0.046076810000    12.000000000000
      Gh(C)           4.017714680000    -4.384104900000    -0.887618630000    12.000000000000
         N            6.279812100000    -4.253033720000   -25.405091450000    14.003074004430
         N            6.068707770000    -2.281256970000   -23.792786930000    14.003074004430
         H            3.668711560000    -5.646289410000   -27.565070100000     1.007825032230
         H            0.690345210000    -2.375456940000   -26.026872460000     1.007825032230
         H            3.359174420000     0.176506010000   -22.505579930000     1.007825032230
         H            7.352667820000    -1.994613110000   -22.691423080000     1.007825032230
         C            3.779525860000    -1.215084530000   -23.829648380000    12.000000000000
         C            2.382429980000    -2.555055380000   -25.552153280000    12.000000000000
         C            4.017714680000    -4.384104900000   -26.485848720000    12.000000000000

  Charge       = 0
  Multiplicity = 1
  Basis Set: AUG-CC-PVDZ
    Blend: AUG-CC-PVDZ
  Basis Set: (AUG-CC-PVDZ AUX)
    Blend: AUG-CC-PVDZ-JKFIT

    Orbital Energies [Eh]
    ---------------------

    Doubly Occupied:

       1A    -15.636223     2A    -15.592313     3A    -11.279894
       4A    -11.237784     5A    -11.209891     6A     -1.386922
       7A     -1.121901     8A     -1.066898     9A     -0.872768
      10A     -0.837061    11A     -0.757292    12A     -0.645746
      13A     -0.620834    14A     -0.609140    15A     -0.583920
      16A     -0.461404    17A     -0.370721    18A     -0.346048

  @DF-RHF Final Energy:  -224.76233957653994

   => Energetics <=

    Nuclear Repulsion Energy =            166.6240565646954224
    One-Electron Energy =                -633.4992739856959361
    Two-Electron Energy =                 242.1128778444605700
    Total Energy =                       -224.7623395765399437

  Dipole Moment: [D]
     X:    -1.0235      Y:     1.6055      Z:     1.4733     Total:     2.4075

    SAPT Results
  --------------------------------------------------------------------------------------------------------
    Electrostatics                 -0.02137082 [mEh]      -0.01341039 [kcal/mol]      -0.05610908 [kJ/mol]
      Elst10,r                     -0.02137082 [mEh]      -0.01341039 [kcal/mol]      -0.05610908 [kJ/mol]

    Exchange                        0.00000015 [mEh]       0.00000010 [kcal/mol]       0.00000041 [kJ/mol]
      Exch10                        0.00000015 [mEh]       0.00000010 [kcal/mol]       0.00000041 [kJ/mol]
      Exch10(S^2)                   0.00000015 [mEh]       0.00000010 [kcal/mol]       0.00000041 [kJ/mol]

    Induction                      -0.00019209 [mEh]      -0.00012054 [kcal/mol]      -0.00050433 [kJ/mol]
      Ind20,r                      -0.00027959 [mEh]      -0.00017545 [kcal/mol]      -0.00073407 [kJ/mol]
      Exch-Ind20,r                  0.00000023 [mEh]       0.00000014 [kcal/mol]       0.00000060 [kJ/mol]
      delta HF,r (2)                0.00008728 [mEh]       0.00005477 [kcal/mol]       0.00022915 [kJ/mol]

    Dispersion                     -0.00402470 [mEh]      -0.00252554 [kcal/mol]      -0.01056686 [kJ/mol]
      Disp20                       -0.00402471 [mEh]      -0.00252555 [kcal/mol]      -0.01056688 [kJ/mol]
      Exch-Disp20                   0.00000001 [mEh]       0.00000001 [kcal/mol]       0.00000003 [kJ/mol]
      Disp20 (SS)                  -0.00201236 [mEh]      -0.00126277 [kcal/mol]      -0.00528344 [kJ/mol]
      Disp20 (OS)                  -0.00201236 [mEh]      -0.00126277 [kcal/mol]      -0.00528344 [kJ/mol]
      Exch-Disp20 (SS)              0.00000001 [mEh]       0.00000001 [kcal/mol]       0.00000002 [kJ/mol]
      Exch-Disp20 (OS)              0.00000000 [mEh]       0.00000000 [kcal/mol]       0.00000001 [kJ/mol]

  Total HF                         -0.02156275 [mEh]      -0.01353083 [kcal/mol]      -0.05661300 [kJ/mol]
  Total SAPT0                      -0.02558746 [mEh]      -0.01605637 [kcal/mol]      -0.06717986 [kJ/mol]

  Special recipe for scaled SAPT0 (see Manual):
    Electrostatics sSAPT0          -0.02137082 [mEh]      -0.01341039 [kcal/mol]      -0.05610908 [kJ/mol]
    Exchange sSAPT0                 0.00000015 [mEh]       0.00000010 [kcal/mol]       0.00000041 [kJ/mol]
    Induction sSAPT0               -0.00019209 [mEh]      -0.00012054 [kcal/mol]      -0.00050433 [kJ/mol]
    Dispersion sSAPT0              -0.00402470 [mEh]      -0.00252554 [kcal/mol]      -0.01056686 [kJ/mol]
  Total sSAPT0                     -0.02558746 [mEh]      -0.01605637 [kcal/mol]      -0.06717986 [kJ/mol]
  --------------------------------------------------------------------------------------------------------

*** Psi4 exiting successfully. Buy a developer a beer!
