                               Psi4 1.4rc3

  ==> Input File <==

--------------------------------------------------------------------------
# PSI4 file produced by CrystaLattE

# Generated from:               pyrazole.xyz
# Psithon input for N-mer:      2mer-0+482
# Number of atoms per monomer:  [9, 9]
# Number of replicas:           1
# COM priority:                 1.731778300970e-05
# Minimum COM separations:      20.454
# Separation priority:          2.211290508734e-05
# Minimum monomer separations:  18.853
# Cutoff priority:              6.206704499056e-07
# Nuclear repulsion energy:     366.69763189555385

memory 7 GB

molecule Dimer_0_482 {
  N            6.27981210      -4.25303372       0.19313865
  N            6.06870777      -2.28125697       1.80544317
  H            3.66871156      -5.64628941      -1.96684001
  H            0.69034521      -2.37545694      -0.42864236
  H            3.35917442       0.17650601       3.09265017
  H            7.35266782      -1.99461311       2.90680702
  C            3.77952586      -1.21508453       1.76858172
  C            2.38242998      -2.55505538       0.04607681
  C            4.01771468      -4.38410490      -0.88761863
--
  N           -4.94029013      -9.49302627      36.85556374
  N           -4.82142787      -7.45511923      38.39273746
  H           -2.26712739     -11.89393623      36.13753339
  H            0.62750917      -9.45139749      38.89267090
  H           -2.30891491      -5.73834848      40.79730721
  H           -6.28383608      -6.64514217      38.77850279
  C           -2.53859146      -7.12494356      39.42178631
  C           -1.05559903      -9.05461578      38.53186384
  C           -2.61690436     -10.43978359      36.94016589
units = au
no_com
no_reorient
}

set {
  e_convergence 10
  d_convergence 10
  scf_type df
  mp2_type df
  cc_type df
  freeze_core true
}

energy('sapt0/aug-cc-pvdz')

--------------------------------------------------------------------------

  //              Dimer HF             //
    Molecular point group: c1
  Charge       = 0
  Multiplicity = 1
  Basis Set: AUG-CC-PVDZ
    Blend: AUG-CC-PVDZ
  Basis Set: (AUG-CC-PVDZ AUX)
    Blend: AUG-CC-PVDZ-JKFIT
  @DF-RHF Final Energy:  -449.52477878041191
    Total Energy =                       -449.5247787804119071
  //            Monomer A HF           //
    Molecular point group: c1
  Multiplicity = 1
  Basis Set: AUG-CC-PVDZ
    Blend: AUG-CC-PVDZ
  Basis Set: (AUG-CC-PVDZ AUX)
    Blend: AUG-CC-PVDZ-JKFIT
  @DF-RHF Final Energy:  -224.76233952048702
    Total Energy =                       -224.7623395204870178
  //            Monomer B HF           //
    Molecular point group: c1

    Geometry (in Bohr), charge = 0, multiplicity = 1:

       Center              X                  Y                   Z               Mass
    ------------   -----------------  -----------------  -----------------  -----------------
      Gh(N)           6.279812100000    -4.253033720000     0.193138650000    14.003074004430
      Gh(N)           6.068707770000    -2.281256970000     1.805443170000    14.003074004430
      Gh(H)           3.668711560000    -5.646289410000    -1.966840010000     1.007825032230
      Gh(H)           0.690345210000    -2.375456940000    -0.428642360000     1.007825032230
      Gh(H)           3.359174420000     0.176506010000     3.092650170000     1.007825032230
      Gh(H)           7.352667820000    -1.994613110000     2.906807020000     1.007825032230
      Gh(C)           3.779525860000    -1.215084530000     1.768581720000    12.000000000000
      Gh(C)           2.382429980000    -2.555055380000     0.046076810000    12.000000000000
      Gh(C)           4.017714680000    -4.384104900000    -0.887618630000    12.000000000000
         N           -4.940290130000    -9.493026270000    36.855563740000    14.003074004430
         N           -4.821427870000    -7.455119230000    38.392737460000    14.003074004430
         H           -2.267127390000   -11.893936230000    36.137533390000     1.007825032230
         H            0.627509170000    -9.451397490000    38.892670900000     1.007825032230
         H           -2.308914910000    -5.738348480000    40.797307210000     1.007825032230
         H           -6.283836080000    -6.645142170000    38.778502790000     1.007825032230
         C           -2.538591460000    -7.124943560000    39.421786310000    12.000000000000
         C           -1.055599030000    -9.054615780000    38.531863840000    12.000000000000
         C           -2.616904360000   -10.439783590000    36.940165890000    12.000000000000

  Charge       = 0
  Multiplicity = 1
  Basis Set: AUG-CC-PVDZ
    Blend: AUG-CC-PVDZ
  Basis Set: (AUG-CC-PVDZ AUX)
    Blend: AUG-CC-PVDZ-JKFIT

    Orbital Energies [Eh]
    ---------------------

    Doubly Occupied:

       1A    -15.636233     2A    -15.592291     3A    -11.279903
       4A    -11.237759     5A    -11.209884     6A     -1.387001
       7A     -1.121894     8A     -1.066928     9A     -0.872759
      10A     -0.837039    11A     -0.757272    12A     -0.645745
      13A     -0.620828    14A     -0.609177    15A     -0.583905
      16A     -0.461413    17A     -0.370715    18A     -0.346055

  @DF-RHF Final Energy:  -224.76243506245279

   => Energetics <=

    Nuclear Repulsion Energy =            166.6286026656645163
    One-Electron Energy =                -633.5084731241530562
    Two-Electron Energy =                 242.1174353960357450
    Total Energy =                       -224.7624350624527949

  Dipole Moment: [D]
     X:     0.7394      Y:     1.4336      Z:     1.7871     Total:     2.4074

    SAPT Results
  --------------------------------------------------------------------------------------------------------
    Electrostatics                 -0.00423883 [mEh]      -0.00265991 [kcal/mol]      -0.01112905 [kJ/mol]
      Elst10,r                     -0.00423883 [mEh]      -0.00265991 [kcal/mol]      -0.01112905 [kJ/mol]

    Exchange                        0.00000000 [mEh]       0.00000000 [kcal/mol]       0.00000000 [kJ/mol]
      Exch10                        0.00000000 [mEh]       0.00000000 [kcal/mol]       0.00000000 [kJ/mol]
      Exch10(S^2)                   0.00000000 [mEh]       0.00000000 [kcal/mol]       0.00000000 [kJ/mol]

    Induction                       0.00004136 [mEh]       0.00002595 [kcal/mol]       0.00010858 [kJ/mol]
      Ind20,r                      -0.00001935 [mEh]      -0.00001214 [kcal/mol]      -0.00005079 [kJ/mol]
      Exch-Ind20,r                  0.00000000 [mEh]       0.00000000 [kcal/mol]       0.00000000 [kJ/mol]
      delta HF,r (2)                0.00006070 [mEh]       0.00003809 [kcal/mol]       0.00015938 [kJ/mol]

    Dispersion                     -0.00029968 [mEh]      -0.00018805 [kcal/mol]      -0.00078680 [kJ/mol]
      Disp20                       -0.00029968 [mEh]      -0.00018805 [kcal/mol]      -0.00078680 [kJ/mol]
      Exch-Disp20                   0.00000000 [mEh]       0.00000000 [kcal/mol]       0.00000000 [kJ/mol]
      Disp20 (SS)                  -0.00014984 [mEh]      -0.00009402 [kcal/mol]      -0.00039340 [kJ/mol]
      Disp20 (OS)                  -0.00014984 [mEh]      -0.00009402 [kcal/mol]      -0.00039340 [kJ/mol]
      Exch-Disp20 (SS)              0.00000000 [mEh]       0.00000000 [kcal/mol]       0.00000000 [kJ/mol]
      Exch-Disp20 (OS)              0.00000000 [mEh]       0.00000000 [kcal/mol]       0.00000000 [kJ/mol]

  Total HF                         -0.00419747 [mEh]      -0.00263395 [kcal/mol]      -0.01102046 [kJ/mol]
  Total SAPT0                      -0.00449715 [mEh]      -0.00282200 [kcal/mol]      -0.01180726 [kJ/mol]

  Special recipe for scaled SAPT0 (see Manual):
    Electrostatics sSAPT0          -0.00423883 [mEh]      -0.00265991 [kcal/mol]      -0.01112905 [kJ/mol]
    Exchange sSAPT0                 0.00000000 [mEh]       0.00000000 [kcal/mol]       0.00000000 [kJ/mol]
    Induction sSAPT0                0.00004136 [mEh]       0.00002595 [kcal/mol]       0.00010858 [kJ/mol]
    Dispersion sSAPT0              -0.00029968 [mEh]      -0.00018805 [kcal/mol]      -0.00078680 [kJ/mol]
  Total sSAPT0                     -0.00449715 [mEh]      -0.00282200 [kcal/mol]      -0.01180726 [kJ/mol]
  --------------------------------------------------------------------------------------------------------

*** Psi4 exiting successfully. Buy a developer a beer!
