                               Psi4 1.4rc3

  ==> Input File <==

--------------------------------------------------------------------------
# PSI4 file produced by CrystaLattE

# Generated from:               pyrazole.xyz
# Psithon input for N-mer:      2mer-0+299
# Number of atoms per monomer:  [9, 9]
# Number of replicas:           1
# COM priority:                 2.160643485481e-05
# Minimum COM separations:      18.999
# Separation priority:          3.580943595762e-05
# Minimum monomer separations:  16.055
# Cutoff priority:              1.180311505355e-06
# Nuclear repulsion energy:     369.40227075960036

memory 7 GB

molecule Dimer_0_299 {
  N            6.27981210      -4.25303372       0.19313865
  N            6.06870777      -2.28125697       1.80544317
  H            3.66871156      -5.64628941      -1.96684001
  H            0.69034521      -2.37545694      -0.42864236
  H            3.35917442       0.17650601       3.09265017
  H            7.35266782      -1.99461311       2.90680702
  C            3.77952586      -1.21508453       1.76858172
  C            2.38242998      -2.55505538       0.04607681
  C            4.01771468      -4.38410490      -0.88761863
--
  N          -12.67871861       2.40090997      33.58564583
  N          -12.55985635       4.43881700      32.04847211
  H          -10.00555588       0.00000000      34.30367619
  H           -7.11091932       2.44253874      31.54853868
  H          -10.04734339       6.15558776      29.64390237
  H          -14.02226457       5.24879406      31.66270679
  C          -10.27701995       4.76899267      31.01942327
  C           -8.79402751       2.83932046      31.90934573
  C          -10.35533284       1.45415264      33.50104368
units = au
no_com
no_reorient
}

set {
  e_convergence 10
  d_convergence 10
  scf_type df
  mp2_type df
  cc_type df
  freeze_core true
}

energy('sapt0/aug-cc-pvdz')

--------------------------------------------------------------------------

  //              Dimer HF             //
    Molecular point group: c1
  Charge       = 0
  Multiplicity = 1
  Basis Set: AUG-CC-PVDZ
    Blend: AUG-CC-PVDZ
  Basis Set: (AUG-CC-PVDZ AUX)
    Blend: AUG-CC-PVDZ-JKFIT
  @DF-RHF Final Energy:  -449.52474848694999
    Total Energy =                       -449.5247484869499885
  //            Monomer A HF           //
    Molecular point group: c1
  Multiplicity = 1
  Basis Set: AUG-CC-PVDZ
    Blend: AUG-CC-PVDZ
  Basis Set: (AUG-CC-PVDZ AUX)
    Blend: AUG-CC-PVDZ-JKFIT
  @DF-RHF Final Energy:  -224.76233952012771
    Total Energy =                       -224.7623395201277106
  //            Monomer B HF           //
    Molecular point group: c1

    Geometry (in Bohr), charge = 0, multiplicity = 1:

       Center              X                  Y                   Z               Mass
    ------------   -----------------  -----------------  -----------------  -----------------
      Gh(N)           6.279812100000    -4.253033720000     0.193138650000    14.003074004430
      Gh(N)           6.068707770000    -2.281256970000     1.805443170000    14.003074004430
      Gh(H)           3.668711560000    -5.646289410000    -1.966840010000     1.007825032230
      Gh(H)           0.690345210000    -2.375456940000    -0.428642360000     1.007825032230
      Gh(H)           3.359174420000     0.176506010000     3.092650170000     1.007825032230
      Gh(H)           7.352667820000    -1.994613110000     2.906807020000     1.007825032230
      Gh(C)           3.779525860000    -1.215084530000     1.768581720000    12.000000000000
      Gh(C)           2.382429980000    -2.555055380000     0.046076810000    12.000000000000
      Gh(C)           4.017714680000    -4.384104900000    -0.887618630000    12.000000000000
         N          -12.678718610000     2.400909970000    33.585645830000    14.003074004430
         N          -12.559856350000     4.438817000000    32.048472110000    14.003074004430
         H          -10.005555880000     0.000000000000    34.303676190000     1.007825032230
         H           -7.110919320000     2.442538740000    31.548538680000     1.007825032230
         H          -10.047343390000     6.155587760000    29.643902370000     1.007825032230
         H          -14.022264570000     5.248794060000    31.662706790000     1.007825032230
         C          -10.277019950000     4.768992670000    31.019423270000    12.000000000000
         C           -8.794027510000     2.839320460000    31.909345730000    12.000000000000
         C          -10.355332840000     1.454152640000    33.501043680000    12.000000000000

  Charge       = 0
  Multiplicity = 1
  Basis Set: AUG-CC-PVDZ
    Blend: AUG-CC-PVDZ
  Basis Set: (AUG-CC-PVDZ AUX)
    Blend: AUG-CC-PVDZ-JKFIT

    Orbital Energies [Eh]
    ---------------------

    Doubly Occupied:

       1A    -15.636233     2A    -15.592291     3A    -11.279903
       4A    -11.237759     5A    -11.209884     6A     -1.387001
       7A     -1.121894     8A     -1.066928     9A     -0.872759
      10A     -0.837039    11A     -0.757272    12A     -0.645745
      13A     -0.620828    14A     -0.609177    15A     -0.583905
      16A     -0.461413    17A     -0.370715    18A     -0.346055

  @DF-RHF Final Energy:  -224.76243506086269

   => Energetics <=

    Nuclear Repulsion Energy =            166.6286028439017741
    One-Electron Energy =                -633.5084734689748984
    Two-Electron Energy =                 242.1174355642104388
    Total Energy =                       -224.7624350608626855

  Dipole Moment: [D]
     X:     0.7394      Y:     1.4336      Z:    -1.7871     Total:     2.4074

    SAPT Results
  --------------------------------------------------------------------------------------------------------
    Electrostatics                  0.02607412 [mEh]       0.01636176 [kcal/mol]       0.06845759 [kJ/mol]
      Elst10,r                      0.02607412 [mEh]       0.01636176 [kcal/mol]       0.06845759 [kJ/mol]

    Exchange                        0.00000000 [mEh]       0.00000000 [kcal/mol]       0.00000000 [kJ/mol]
      Exch10                        0.00000000 [mEh]       0.00000000 [kcal/mol]       0.00000000 [kJ/mol]
      Exch10(S^2)                   0.00000000 [mEh]       0.00000000 [kcal/mol]       0.00000000 [kJ/mol]

    Induction                       0.00001992 [mEh]       0.00001250 [kcal/mol]       0.00005230 [kJ/mol]
      Ind20,r                      -0.00004882 [mEh]      -0.00003064 [kcal/mol]      -0.00012819 [kJ/mol]
      Exch-Ind20,r                  0.00000000 [mEh]       0.00000000 [kcal/mol]       0.00000000 [kJ/mol]
      delta HF,r (2)                0.00006874 [mEh]       0.00004314 [kcal/mol]       0.00018049 [kJ/mol]

    Dispersion                     -0.00055297 [mEh]      -0.00034700 [kcal/mol]      -0.00145184 [kJ/mol]
      Disp20                       -0.00055297 [mEh]      -0.00034700 [kcal/mol]      -0.00145184 [kJ/mol]
      Exch-Disp20                   0.00000000 [mEh]       0.00000000 [kcal/mol]       0.00000000 [kJ/mol]
      Disp20 (SS)                  -0.00027649 [mEh]      -0.00017350 [kcal/mol]      -0.00072592 [kJ/mol]
      Disp20 (OS)                  -0.00027649 [mEh]      -0.00017350 [kcal/mol]      -0.00072592 [kJ/mol]
      Exch-Disp20 (SS)              0.00000000 [mEh]       0.00000000 [kcal/mol]       0.00000000 [kJ/mol]
      Exch-Disp20 (OS)              0.00000000 [mEh]       0.00000000 [kcal/mol]       0.00000000 [kJ/mol]

  Total HF                          0.02609404 [mEh]       0.01637426 [kcal/mol]       0.06850989 [kJ/mol]
  Total SAPT0                       0.02554107 [mEh]       0.01602726 [kcal/mol]       0.06705806 [kJ/mol]

  Special recipe for scaled SAPT0 (see Manual):
    Electrostatics sSAPT0           0.02607412 [mEh]       0.01636176 [kcal/mol]       0.06845759 [kJ/mol]
    Exchange sSAPT0                 0.00000000 [mEh]       0.00000000 [kcal/mol]       0.00000000 [kJ/mol]
    Induction sSAPT0                0.00001992 [mEh]       0.00001250 [kcal/mol]       0.00005230 [kJ/mol]
    Dispersion sSAPT0              -0.00055297 [mEh]      -0.00034700 [kcal/mol]      -0.00145184 [kJ/mol]
  Total sSAPT0                      0.02554107 [mEh]       0.01602726 [kcal/mol]       0.06705806 [kJ/mol]
  --------------------------------------------------------------------------------------------------------

*** Psi4 exiting successfully. Buy a developer a beer!
