                               Psi4 1.4rc3

  ==> Input File <==

--------------------------------------------------------------------------
# PSI4 file produced by CrystaLattE

# Generated from:               pyrazole.xyz
# Psithon input for N-mer:      2mer-0+339
# Number of atoms per monomer:  [9, 9]
# Number of replicas:           1
# COM priority:                 2.940399147337e-05
# Minimum COM separations:      17.145
# Separation priority:          4.660116494242e-05
# Minimum monomer separations:  14.705
# Cutoff priority:              1.676984432955e-06
# Nuclear repulsion energy:     373.19663930772384

memory 7 GB

molecule Dimer_0_339 {
  N            6.27981210      -4.25303372       0.19313865
  N            6.06870777      -2.28125697       1.80544317
  H            3.66871156      -5.64628941      -1.96684001
  H            0.69034521      -2.37545694      -0.42864236
  H            3.35917442       0.17650601       3.09265017
  H            7.35266782      -1.99461311       2.90680702
  C            3.77952586      -1.21508453       1.76858172
  C            2.38242998      -2.55505538       0.04607681
  C            4.01771468      -4.38410490      -0.88761863
--
  N           18.27499532     -14.18732502     -24.01037188
  N           18.39385758     -16.22523205     -25.54754560
  H           20.94815806     -11.78641505     -23.29234153
  H           23.84279462     -14.22895380     -26.04747903
  H           20.90637054     -17.94200281     -27.95211534
  H           16.93144937     -17.03520911     -25.93331093
  C           20.67669399     -16.55540772     -26.57659445
  C           22.15968642     -14.62573551     -25.68667198
  C           20.59838109     -13.24056769     -24.09497403
units = au
no_com
no_reorient
}

set {
  e_convergence 10
  d_convergence 10
  scf_type df
  mp2_type df
  cc_type df
  freeze_core true
}

energy('sapt0/aug-cc-pvdz')

--------------------------------------------------------------------------

  //              Dimer HF             //
    Molecular point group: c1
  Charge       = 0
  Multiplicity = 1
  Basis Set: AUG-CC-PVDZ
    Blend: AUG-CC-PVDZ
  Basis Set: (AUG-CC-PVDZ AUX)
    Blend: AUG-CC-PVDZ-JKFIT
  @DF-RHF Final Energy:  -449.52471999021958
    Total Energy =                       -449.5247199902195234
  //            Monomer A HF           //
    Molecular point group: c1
  Multiplicity = 1
  Basis Set: AUG-CC-PVDZ
    Blend: AUG-CC-PVDZ
  Basis Set: (AUG-CC-PVDZ AUX)
    Blend: AUG-CC-PVDZ-JKFIT
  @DF-RHF Final Energy:  -224.76233952275376
    Total Energy =                       -224.7623395227537628
  //            Monomer B HF           //
    Molecular point group: c1

    Geometry (in Bohr), charge = 0, multiplicity = 1:

       Center              X                  Y                   Z               Mass
    ------------   -----------------  -----------------  -----------------  -----------------
      Gh(N)           6.279812100000    -4.253033720000     0.193138650000    14.003074004430
      Gh(N)           6.068707770000    -2.281256970000     1.805443170000    14.003074004430
      Gh(H)           3.668711560000    -5.646289410000    -1.966840010000     1.007825032230
      Gh(H)           0.690345210000    -2.375456940000    -0.428642360000     1.007825032230
      Gh(H)           3.359174420000     0.176506010000     3.092650170000     1.007825032230
      Gh(H)           7.352667820000    -1.994613110000     2.906807020000     1.007825032230
      Gh(C)           3.779525860000    -1.215084530000     1.768581720000    12.000000000000
      Gh(C)           2.382429980000    -2.555055380000     0.046076810000    12.000000000000
      Gh(C)           4.017714680000    -4.384104900000    -0.887618630000    12.000000000000
         N           18.274995320000   -14.187325020000   -24.010371880000    14.003074004430
         N           18.393857580000   -16.225232050000   -25.547545600000    14.003074004430
         H           20.948158060000   -11.786415050000   -23.292341530000     1.007825032230
         H           23.842794620000   -14.228953800000   -26.047479030000     1.007825032230
         H           20.906370540000   -17.942002810000   -27.952115340000     1.007825032230
         H           16.931449370000   -17.035209110000   -25.933310930000     1.007825032230
         C           20.676693990000   -16.555407720000   -26.576594450000    12.000000000000
         C           22.159686420000   -14.625735510000   -25.686671980000    12.000000000000
         C           20.598381090000   -13.240567690000   -24.094974030000    12.000000000000

  Charge       = 0
  Multiplicity = 1
  Basis Set: AUG-CC-PVDZ
    Blend: AUG-CC-PVDZ
  Basis Set: (AUG-CC-PVDZ AUX)
    Blend: AUG-CC-PVDZ-JKFIT

    Orbital Energies [Eh]
    ---------------------

    Doubly Occupied:

       1A    -15.636233     2A    -15.592291     3A    -11.279903
       4A    -11.237759     5A    -11.209884     6A     -1.387001
       7A     -1.121894     8A     -1.066928     9A     -0.872759
      10A     -0.837039    11A     -0.757272    12A     -0.645745
      13A     -0.620828    14A     -0.609177    15A     -0.583905
      16A     -0.461413    17A     -0.370715    18A     -0.346055

  @DF-RHF Final Energy:  -224.76243506309595

   => Energetics <=

    Nuclear Repulsion Energy =            166.6286027459928505
    One-Electron Energy =                -633.5084732807283672
    Two-Electron Energy =                 242.1174354716395669
    Total Energy =                       -224.7624350630959498

  Dipole Moment: [D]
     X:     0.7394      Y:    -1.4336      Z:    -1.7871     Total:     2.4074

    SAPT Results
  --------------------------------------------------------------------------------------------------------
    Electrostatics                  0.05466848 [mEh]       0.03430499 [kcal/mol]       0.14353209 [kJ/mol]
      Elst10,r                      0.05466848 [mEh]       0.03430499 [kcal/mol]       0.14353209 [kJ/mol]

    Exchange                        0.00000000 [mEh]       0.00000000 [kcal/mol]       0.00000000 [kJ/mol]
      Exch10                        0.00000000 [mEh]       0.00000000 [kcal/mol]       0.00000000 [kJ/mol]
      Exch10(S^2)                   0.00000000 [mEh]       0.00000000 [kcal/mol]       0.00000000 [kJ/mol]

    Induction                      -0.00007285 [mEh]      -0.00004572 [kcal/mol]      -0.00019128 [kJ/mol]
      Ind20,r                      -0.00015555 [mEh]      -0.00009761 [kcal/mol]      -0.00040840 [kJ/mol]
      Exch-Ind20,r                  0.00000000 [mEh]       0.00000000 [kcal/mol]       0.00000000 [kJ/mol]
      delta HF,r (2)                0.00008270 [mEh]       0.00005189 [kcal/mol]       0.00021712 [kJ/mol]

    Dispersion                     -0.00105036 [mEh]      -0.00065911 [kcal/mol]      -0.00275771 [kJ/mol]
      Disp20                       -0.00105036 [mEh]      -0.00065911 [kcal/mol]      -0.00275771 [kJ/mol]
      Exch-Disp20                   0.00000000 [mEh]       0.00000000 [kcal/mol]       0.00000000 [kJ/mol]
      Disp20 (SS)                  -0.00052518 [mEh]      -0.00032955 [kcal/mol]      -0.00137885 [kJ/mol]
      Disp20 (OS)                  -0.00052518 [mEh]      -0.00032955 [kcal/mol]      -0.00137885 [kJ/mol]
      Exch-Disp20 (SS)              0.00000000 [mEh]       0.00000000 [kcal/mol]       0.00000000 [kJ/mol]
      Exch-Disp20 (OS)              0.00000000 [mEh]       0.00000000 [kcal/mol]       0.00000000 [kJ/mol]

  Total HF                          0.05459563 [mEh]       0.03425928 [kcal/mol]       0.14334081 [kJ/mol]
  Total SAPT0                       0.05354527 [mEh]       0.03360017 [kcal/mol]       0.14058310 [kJ/mol]

  Special recipe for scaled SAPT0 (see Manual):
    Electrostatics sSAPT0           0.05466848 [mEh]       0.03430499 [kcal/mol]       0.14353209 [kJ/mol]
    Exchange sSAPT0                 0.00000000 [mEh]       0.00000000 [kcal/mol]       0.00000000 [kJ/mol]
    Induction sSAPT0               -0.00007285 [mEh]      -0.00004572 [kcal/mol]      -0.00019128 [kJ/mol]
    Dispersion sSAPT0              -0.00105036 [mEh]      -0.00065911 [kcal/mol]      -0.00275771 [kJ/mol]
  Total sSAPT0                      0.05354527 [mEh]       0.03360017 [kcal/mol]       0.14058310 [kJ/mol]
  --------------------------------------------------------------------------------------------------------

*** Psi4 exiting successfully. Buy a developer a beer!
