                               Psi4 1.4rc3

  ==> Input File <==

--------------------------------------------------------------------------
# PSI4 file produced by CrystaLattE

# Generated from:               pyrazole.xyz
# Psithon input for N-mer:      2mer-0+368
# Number of atoms per monomer:  [9, 9]
# Number of replicas:           2
# COM priority:                 2.258212617502e-05
# Minimum COM separations:      18.722
# Separation priority:          3.381289700703e-05
# Minimum monomer separations:  16.365
# Cutoff priority:              1.093393553137e-06
# Nuclear repulsion energy:     369.8117155553888

memory 7 GB

molecule Dimer_0_368 {
  N            6.27981210      -4.25303372       0.19313865
  N            6.06870777      -2.28125697       1.80544317
  H            3.66871156      -5.64628941      -1.96684001
  H            0.69034521      -2.37545694      -0.42864236
  H            3.35917442       0.17650601       3.09265017
  H            7.35266782      -1.99461311       2.90680702
  C            3.77952586      -1.21508453       1.76858172
  C            2.38242998      -2.55505538       0.04607681
  C            4.01771468      -4.38410490      -0.88761863
--
  N            6.27981210     -31.32125380      19.39181122
  N            6.06870777     -33.29303055      21.00411574
  H            3.66871156     -29.92799811      17.23183256
  H            0.69034521     -33.19883057      18.77003021
  H            3.35917442     -35.75079353      22.29132274
  H            7.35266782     -33.57967441      22.10547959
  C            3.77952586     -34.35920299      20.96725429
  C            2.38242998     -33.01923214      19.24474939
  C            4.01771468     -31.19018262      18.31105394
units = au
no_com
no_reorient
}

set {
  e_convergence 10
  d_convergence 10
  scf_type df
  mp2_type df
  cc_type df
  freeze_core true
}

energy('sapt0/aug-cc-pvdz')

--------------------------------------------------------------------------

  //              Dimer HF             //
    Molecular point group: c1
  Charge       = 0
  Multiplicity = 1
  Basis Set: AUG-CC-PVDZ
    Blend: AUG-CC-PVDZ
  Basis Set: (AUG-CC-PVDZ AUX)
    Blend: AUG-CC-PVDZ-JKFIT
  @DF-RHF Final Energy:  -449.52466209615881
    Total Energy =                       -449.5246620961588633
  //            Monomer A HF           //
    Molecular point group: c1
  Multiplicity = 1
  Basis Set: AUG-CC-PVDZ
    Blend: AUG-CC-PVDZ
  Basis Set: (AUG-CC-PVDZ AUX)
    Blend: AUG-CC-PVDZ-JKFIT
  @DF-RHF Final Energy:  -224.76233952218965
    Total Energy =                       -224.7623395221896487
  //            Monomer B HF           //
    Molecular point group: c1

    Geometry (in Bohr), charge = 0, multiplicity = 1:

       Center              X                  Y                   Z               Mass
    ------------   -----------------  -----------------  -----------------  -----------------
      Gh(N)           6.279812100000    -4.253033720000     0.193138650000    14.003074004430
      Gh(N)           6.068707770000    -2.281256970000     1.805443170000    14.003074004430
      Gh(H)           3.668711560000    -5.646289410000    -1.966840010000     1.007825032230
      Gh(H)           0.690345210000    -2.375456940000    -0.428642360000     1.007825032230
      Gh(H)           3.359174420000     0.176506010000     3.092650170000     1.007825032230
      Gh(H)           7.352667820000    -1.994613110000     2.906807020000     1.007825032230
      Gh(C)           3.779525860000    -1.215084530000     1.768581720000    12.000000000000
      Gh(C)           2.382429980000    -2.555055380000     0.046076810000    12.000000000000
      Gh(C)           4.017714680000    -4.384104900000    -0.887618630000    12.000000000000
         N            6.279812100000   -31.321253800000    19.391811220000    14.003074004430
         N            6.068707770000   -33.293030550000    21.004115740000    14.003074004430
         H            3.668711560000   -29.927998110000    17.231832560000     1.007825032230
         H            0.690345210000   -33.198830570000    18.770030210000     1.007825032230
         H            3.359174420000   -35.750793530000    22.291322740000     1.007825032230
         H            7.352667820000   -33.579674410000    22.105479590000     1.007825032230
         C            3.779525860000   -34.359202990000    20.967254290000    12.000000000000
         C            2.382429980000   -33.019232140000    19.244749390000    12.000000000000
         C            4.017714680000   -31.190182620000    18.311053940000    12.000000000000

  Charge       = 0
  Multiplicity = 1
  Basis Set: AUG-CC-PVDZ
    Blend: AUG-CC-PVDZ
  Basis Set: (AUG-CC-PVDZ AUX)
    Blend: AUG-CC-PVDZ-JKFIT

    Orbital Energies [Eh]
    ---------------------

    Doubly Occupied:

       1A    -15.636223     2A    -15.592313     3A    -11.279894
       4A    -11.237784     5A    -11.209891     6A     -1.386922
       7A     -1.121901     8A     -1.066898     9A     -0.872768
      10A     -0.837061    11A     -0.757292    12A     -0.645746
      13A     -0.620834    14A     -0.609140    15A     -0.583920
      16A     -0.461404    17A     -0.370721    18A     -0.346048

  @DF-RHF Final Energy:  -224.76233952195236

   => Energetics <=

    Nuclear Repulsion Energy =            166.6240564786835137
    One-Electron Energy =                -633.4992734426103880
    Two-Electron Energy =                 242.1128774419744900
    Total Energy =                       -224.7623395219523559

  Dipole Moment: [D]
     X:    -1.0235      Y:    -1.6055      Z:     1.4733     Total:     2.4075

    SAPT Results
  --------------------------------------------------------------------------------------------------------
    Electrostatics                  0.01691940 [mEh]       0.01061709 [kcal/mol]       0.04442188 [kJ/mol]
      Elst10,r                      0.01691940 [mEh]       0.01061709 [kcal/mol]       0.04442188 [kJ/mol]

    Exchange                        0.00000000 [mEh]       0.00000000 [kcal/mol]       0.00000000 [kJ/mol]
      Exch10                        0.00000000 [mEh]       0.00000000 [kcal/mol]       0.00000000 [kJ/mol]
      Exch10(S^2)                   0.00000000 [mEh]       0.00000000 [kcal/mol]       0.00000000 [kJ/mol]

    Induction                       0.00002858 [mEh]       0.00001793 [kcal/mol]       0.00007504 [kJ/mol]
      Ind20,r                      -0.00003845 [mEh]      -0.00002413 [kcal/mol]      -0.00010095 [kJ/mol]
      Exch-Ind20,r                  0.00000000 [mEh]       0.00000000 [kcal/mol]       0.00000000 [kJ/mol]
      delta HF,r (2)                0.00006703 [mEh]       0.00004206 [kcal/mol]       0.00017599 [kJ/mol]

    Dispersion                     -0.00056535 [mEh]      -0.00035476 [kcal/mol]      -0.00148432 [kJ/mol]
      Disp20                       -0.00056535 [mEh]      -0.00035476 [kcal/mol]      -0.00148432 [kJ/mol]
      Exch-Disp20                   0.00000000 [mEh]       0.00000000 [kcal/mol]       0.00000000 [kJ/mol]
      Disp20 (SS)                  -0.00028267 [mEh]      -0.00017738 [kcal/mol]      -0.00074216 [kJ/mol]
      Disp20 (OS)                  -0.00028267 [mEh]      -0.00017738 [kcal/mol]      -0.00074216 [kJ/mol]
      Exch-Disp20 (SS)              0.00000000 [mEh]       0.00000000 [kcal/mol]       0.00000000 [kJ/mol]
      Exch-Disp20 (OS)              0.00000000 [mEh]       0.00000000 [kcal/mol]       0.00000000 [kJ/mol]

  Total HF                          0.01694798 [mEh]       0.01063502 [kcal/mol]       0.04449692 [kJ/mol]
  Total SAPT0                       0.01638264 [mEh]       0.01028026 [kcal/mol]       0.04301260 [kJ/mol]

  Special recipe for scaled SAPT0 (see Manual):
    Electrostatics sSAPT0           0.01691940 [mEh]       0.01061709 [kcal/mol]       0.04442188 [kJ/mol]
    Exchange sSAPT0                 0.00000000 [mEh]       0.00000000 [kcal/mol]       0.00000000 [kJ/mol]
    Induction sSAPT0                0.00002858 [mEh]       0.00001793 [kcal/mol]       0.00007504 [kJ/mol]
    Dispersion sSAPT0              -0.00056535 [mEh]      -0.00035476 [kcal/mol]      -0.00148432 [kJ/mol]
  Total sSAPT0                      0.01638264 [mEh]       0.01028026 [kcal/mol]       0.04301260 [kJ/mol]
  --------------------------------------------------------------------------------------------------------

*** Psi4 exiting successfully. Buy a developer a beer!
