                               Psi4 1.4rc3

  ==> Input File <==

--------------------------------------------------------------------------
# PSI4 file produced by CrystaLattE

# Generated from:               pyrazole.xyz
# Psithon input for N-mer:      2mer-0+7
# Number of atoms per monomer:  [9, 9]
# Number of replicas:           1
# COM priority:                 1.514863833867e-03
# Minimum COM separations:      4.608
# Separation priority:          6.794475923751e-03
# Minimum monomer separations:  2.794
# Cutoff priority:              1.286889583011e-03
# Nuclear repulsion energy:     480.4927205600731

memory 7 GB

molecule Dimer_0_7 {
  N            6.27981210      -4.25303372       0.19313865
  N            6.06870777      -2.28125697       1.80544317
  H            3.66871156      -5.64628941      -1.96684001
  H            0.69034521      -2.37545694      -0.42864236
  H            3.35917442       0.17650601       3.09265017
  H            7.35266782      -1.99461311       2.90680702
  C            3.77952586      -1.21508453       1.76858172
  C            2.38242998      -2.55505538       0.04607681
  C            4.01771468      -4.38410490      -0.88761863
--
  N            2.79813836       2.40090997       7.98741574
  N            2.91700062       4.43881700       6.45024202
  H            5.47130109       0.00000000       8.70544609
  H            8.36593765       2.44253874       5.95030859
  H            5.42951358       6.15558776       4.04567228
  H            1.45459240       5.24879406       6.06447669
  C            5.19983702       4.76899267       5.42119317
  C            6.68282945       2.83932046       6.31111564
  C            5.12152412       1.45415264       7.90281359
units = au
no_com
no_reorient
}

set {
  e_convergence 10
  d_convergence 10
  scf_type df
  mp2_type df
  cc_type df
  freeze_core true
}

energy('sapt0/aug-cc-pvdz')

--------------------------------------------------------------------------

  //              Dimer HF             //
    Molecular point group: c1
  Charge       = 0
  Multiplicity = 1
  Basis Set: AUG-CC-PVDZ
    Blend: AUG-CC-PVDZ
  Basis Set: (AUG-CC-PVDZ AUX)
    Blend: AUG-CC-PVDZ-JKFIT
  @DF-RHF Final Energy:  -449.52549450924403
    Total Energy =                       -449.5254945092440266
  //            Monomer A HF           //
    Molecular point group: c1
  Multiplicity = 1
  Basis Set: AUG-CC-PVDZ
    Blend: AUG-CC-PVDZ
  Basis Set: (AUG-CC-PVDZ AUX)
    Blend: AUG-CC-PVDZ-JKFIT
  @DF-RHF Final Energy:  -224.76280663997528
    Total Energy =                       -224.7628066399752811
  //            Monomer B HF           //
    Molecular point group: c1

    Geometry (in Bohr), charge = 0, multiplicity = 1:

       Center              X                  Y                   Z               Mass
    ------------   -----------------  -----------------  -----------------  -----------------
      Gh(N)           6.279812100000    -4.253033720000     0.193138650000    14.003074004430
      Gh(N)           6.068707770000    -2.281256970000     1.805443170000    14.003074004430
      Gh(H)           3.668711560000    -5.646289410000    -1.966840010000     1.007825032230
      Gh(H)           0.690345210000    -2.375456940000    -0.428642360000     1.007825032230
      Gh(H)           3.359174420000     0.176506010000     3.092650170000     1.007825032230
      Gh(H)           7.352667820000    -1.994613110000     2.906807020000     1.007825032230
      Gh(C)           3.779525860000    -1.215084530000     1.768581720000    12.000000000000
      Gh(C)           2.382429980000    -2.555055380000     0.046076810000    12.000000000000
      Gh(C)           4.017714680000    -4.384104900000    -0.887618630000    12.000000000000
         N            2.798138360000     2.400909970000     7.987415740000    14.003074004430
         N            2.917000620000     4.438817000000     6.450242020000    14.003074004430
         H            5.471301090000     0.000000000000     8.705446090000     1.007825032230
         H            8.365937650000     2.442538740000     5.950308590000     1.007825032230
         H            5.429513580000     6.155587760000     4.045672280000     1.007825032230
         H            1.454592400000     5.248794060000     6.064476690000     1.007825032230
         C            5.199837020000     4.768992670000     5.421193170000    12.000000000000
         C            6.682829450000     2.839320460000     6.311115640000    12.000000000000
         C            5.121524120000     1.454152640000     7.902813590000    12.000000000000

  Charge       = 0
  Multiplicity = 1
  Basis Set: AUG-CC-PVDZ
    Blend: AUG-CC-PVDZ
  Basis Set: (AUG-CC-PVDZ AUX)
    Blend: AUG-CC-PVDZ-JKFIT

    Orbital Energies [Eh]
    ---------------------

    Doubly Occupied:

       1A    -15.636119     2A    -15.592180     3A    -11.279854
       4A    -11.237702     5A    -11.209918     6A     -1.386735
       7A     -1.121663     8A     -1.066692     9A     -0.872536
      10A     -0.836801    11A     -0.757028    12A     -0.645506
      13A     -0.620585    14A     -0.609080    15A     -0.583616
      16A     -0.461202    17A     -0.370573    18A     -0.345934

  @DF-RHF Final Energy:  -224.76342976719744

   => Energetics <=

    Nuclear Repulsion Energy =            166.6286029183496851
    One-Electron Energy =                -633.5166212504243504
    Two-Electron Energy =                 242.1245885648772571
    Total Energy =                       -224.7634297671974366

  Dipole Moment: [D]
     X:     0.7381      Y:     1.4307      Z:    -1.7877     Total:     2.4058

    SAPT Results
  --------------------------------------------------------------------------------------------------------
    Electrostatics                 -3.43694088 [mEh]      -2.15671296 [kcal/mol]      -9.02368704 [kJ/mol]
      Elst10,r                     -3.43694088 [mEh]      -2.15671296 [kcal/mol]      -9.02368704 [kJ/mol]

    Exchange                        5.20516904 [mEh]       3.26629289 [kcal/mol]      13.66616943 [kJ/mol]
      Exch10                        5.20516904 [mEh]       3.26629289 [kcal/mol]      13.66616943 [kJ/mol]
      Exch10(S^2)                   5.18854752 [mEh]       3.25586273 [kcal/mol]      13.62252965 [kJ/mol]

    Induction                      -1.02633023 [mEh]      -0.64403194 [kcal/mol]      -2.69462965 [kJ/mol]
      Ind20,r                      -2.36604187 [mEh]      -1.48471369 [kcal/mol]      -6.21204207 [kJ/mol]
      Exch-Ind20,r                  1.82998679 [mEh]       1.14833405 [kcal/mol]       4.80462966 [kJ/mol]
      delta HF,r (2)               -0.49027515 [mEh]      -0.30765230 [kcal/mol]      -1.28721724 [kJ/mol]

    Dispersion                     -5.80019031 [mEh]      -3.63967437 [kcal/mol]     -15.22839756 [kJ/mol]
      Disp20                       -6.44996267 [mEh]      -4.04741268 [kcal/mol]     -16.93437464 [kJ/mol]
      Exch-Disp20                   0.64977235 [mEh]       0.40773831 [kcal/mol]       1.70597708 [kJ/mol]
      Disp20 (SS)                  -3.22498133 [mEh]      -2.02370634 [kcal/mol]      -8.46718732 [kJ/mol]
      Disp20 (OS)                  -3.22498133 [mEh]      -2.02370634 [kcal/mol]      -8.46718732 [kJ/mol]
      Exch-Disp20 (SS)              0.40873572 [mEh]       0.25648554 [kcal/mol]       1.07313550 [kJ/mol]
      Exch-Disp20 (OS)              0.24103663 [mEh]       0.15125277 [kcal/mol]       0.63284158 [kJ/mol]

  Total HF                          0.74189793 [mEh]       0.46554798 [kcal/mol]       1.94785274 [kJ/mol]
  Total SAPT0                      -5.05829238 [mEh]      -3.17412639 [kcal/mol]     -13.28054482 [kJ/mol]

  Special recipe for scaled SAPT0 (see Manual):
    Electrostatics sSAPT0          -3.43694088 [mEh]      -2.15671296 [kcal/mol]      -9.02368704 [kJ/mol]
    Exchange sSAPT0                 5.20516904 [mEh]       3.26629289 [kcal/mol]      13.66616943 [kJ/mol]
    Induction sSAPT0               -1.00868674 [mEh]      -0.63296048 [kcal/mol]      -2.64830666 [kJ/mol]
    Dispersion sSAPT0              -5.79392565 [mEh]      -3.63574323 [kcal/mol]     -15.21194969 [kJ/mol]
  Total sSAPT0                     -5.03438422 [mEh]      -3.15912379 [kcal/mol]     -13.21777396 [kJ/mol]
  --------------------------------------------------------------------------------------------------------

*** Psi4 exiting successfully. Buy a developer a beer!
