                               Psi4 1.4rc3

  ==> Input File <==

--------------------------------------------------------------------------
# PSI4 file produced by CrystaLattE

# Generated from:               pyrazole.xyz
# Psithon input for N-mer:      2mer-0+379
# Number of atoms per monomer:  [9, 9]
# Number of replicas:           1
# COM priority:                 1.372996834373e-05
# Minimum COM separations:      22.099
# Separation priority:          2.268849453546e-05
# Minimum monomer separations:  18.692
# Cutoff priority:              6.423044138027e-07
# Nuclear repulsion energy:     364.392153709662

memory 7 GB

molecule Dimer_0_379 {
  N            6.27981210      -4.25303372       0.19313865
  N            6.06870777      -2.28125697       1.80544317
  H            3.66871156      -5.64628941      -1.96684001
  H            0.69034521      -2.37545694      -0.42864236
  H            3.35917442       0.17650601       3.09265017
  H            7.35266782      -1.99461311       2.90680702
  C            3.77952586      -1.21508453       1.76858172
  C            2.38242998      -2.55505538       0.04607681
  C            4.01771468      -4.38410490      -0.88761863
--
  N          -28.15557558       9.60054745      27.18608831
  N          -28.03671332       7.56264041      25.64891459
  H          -25.48241284      12.00145742      27.90411866
  H          -22.58777629       9.55891867      25.14898116
  H          -25.52420036       5.84586966      23.24434485
  H          -29.49912153       6.75266336      25.26314926
  C          -25.75387692       7.23246474      24.61986574
  C          -24.27088448       9.16213696      25.50978821
  C          -25.83218981      10.54730477      27.10148616
units = au
no_com
no_reorient
}

set {
  e_convergence 10
  d_convergence 10
  scf_type df
  mp2_type df
  cc_type df
  freeze_core true
}

energy('sapt0/aug-cc-pvdz')

--------------------------------------------------------------------------

  //              Dimer HF             //
    Molecular point group: c1
  Charge       = 0
  Multiplicity = 1
  Basis Set: AUG-CC-PVDZ
    Blend: AUG-CC-PVDZ
  Basis Set: (AUG-CC-PVDZ AUX)
    Blend: AUG-CC-PVDZ-JKFIT
  @DF-RHF Final Energy:  -449.52476386735793
    Total Energy =                       -449.5247638673579331
  //            Monomer A HF           //
    Molecular point group: c1
  Multiplicity = 1
  Basis Set: AUG-CC-PVDZ
    Blend: AUG-CC-PVDZ
  Basis Set: (AUG-CC-PVDZ AUX)
    Blend: AUG-CC-PVDZ-JKFIT
  @DF-RHF Final Energy:  -224.76233952088970
    Total Energy =                       -224.7623395208896966
  //            Monomer B HF           //
    Molecular point group: c1

    Geometry (in Bohr), charge = 0, multiplicity = 1:

       Center              X                  Y                   Z               Mass
    ------------   -----------------  -----------------  -----------------  -----------------
      Gh(N)           6.279812100000    -4.253033720000     0.193138650000    14.003074004430
      Gh(N)           6.068707770000    -2.281256970000     1.805443170000    14.003074004430
      Gh(H)           3.668711560000    -5.646289410000    -1.966840010000     1.007825032230
      Gh(H)           0.690345210000    -2.375456940000    -0.428642360000     1.007825032230
      Gh(H)           3.359174420000     0.176506010000     3.092650170000     1.007825032230
      Gh(H)           7.352667820000    -1.994613110000     2.906807020000     1.007825032230
      Gh(C)           3.779525860000    -1.215084530000     1.768581720000    12.000000000000
      Gh(C)           2.382429980000    -2.555055380000     0.046076810000    12.000000000000
      Gh(C)           4.017714680000    -4.384104900000    -0.887618630000    12.000000000000
         N          -28.155575580000     9.600547450000    27.186088310000    14.003074004430
         N          -28.036713320000     7.562640410000    25.648914590000    14.003074004430
         H          -25.482412840000    12.001457420000    27.904118660000     1.007825032230
         H          -22.587776290000     9.558918670000    25.148981160000     1.007825032230
         H          -25.524200360000     5.845869660000    23.244344850000     1.007825032230
         H          -29.499121530000     6.752663360000    25.263149260000     1.007825032230
         C          -25.753876920000     7.232464740000    24.619865740000    12.000000000000
         C          -24.270884480000     9.162136960000    25.509788210000    12.000000000000
         C          -25.832189810000    10.547304770000    27.101486160000    12.000000000000

  Charge       = 0
  Multiplicity = 1
  Basis Set: AUG-CC-PVDZ
    Blend: AUG-CC-PVDZ
  Basis Set: (AUG-CC-PVDZ AUX)
    Blend: AUG-CC-PVDZ-JKFIT

    Orbital Energies [Eh]
    ---------------------

    Doubly Occupied:

       1A    -15.636233     2A    -15.592291     3A    -11.279903
       4A    -11.237759     5A    -11.209884     6A     -1.387001
       7A     -1.121894     8A     -1.066928     9A     -0.872759
      10A     -0.837039    11A     -0.757272    12A     -0.645745
      13A     -0.620828    14A     -0.609177    15A     -0.583905
      16A     -0.461413    17A     -0.370715    18A     -0.346055

  @DF-RHF Final Energy:  -224.76243506045617

   => Energetics <=

    Nuclear Repulsion Energy =            166.6286027509455323
    One-Electron Energy =                -633.5084732793550302
    Two-Electron Energy =                 242.1174354679532996
    Total Energy =                       -224.7624350604561698

  Dipole Moment: [D]
     X:     0.7394      Y:    -1.4336      Z:    -1.7871     Total:     2.4074

    SAPT Results
  --------------------------------------------------------------------------------------------------------
    Electrostatics                  0.01066659 [mEh]       0.00669339 [kcal/mol]       0.02800514 [kJ/mol]
      Elst10,r                      0.01066659 [mEh]       0.00669339 [kcal/mol]       0.02800514 [kJ/mol]

    Exchange                        0.00000000 [mEh]       0.00000000 [kcal/mol]       0.00000000 [kJ/mol]
      Exch10                        0.00000000 [mEh]       0.00000000 [kcal/mol]       0.00000000 [kJ/mol]
      Exch10(S^2)                   0.00000000 [mEh]       0.00000000 [kcal/mol]       0.00000000 [kJ/mol]

    Induction                       0.00004739 [mEh]       0.00002974 [kcal/mol]       0.00012443 [kJ/mol]
      Ind20,r                      -0.00002119 [mEh]      -0.00001330 [kcal/mol]      -0.00005564 [kJ/mol]
      Exch-Ind20,r                  0.00000000 [mEh]       0.00000000 [kcal/mol]       0.00000000 [kJ/mol]
      delta HF,r (2)                0.00006858 [mEh]       0.00004304 [kcal/mol]       0.00018007 [kJ/mol]

    Dispersion                     -0.00024393 [mEh]      -0.00015307 [kcal/mol]      -0.00064044 [kJ/mol]
      Disp20                       -0.00024393 [mEh]      -0.00015307 [kcal/mol]      -0.00064044 [kJ/mol]
      Exch-Disp20                   0.00000000 [mEh]       0.00000000 [kcal/mol]       0.00000000 [kJ/mol]
      Disp20 (SS)                  -0.00012196 [mEh]      -0.00007653 [kcal/mol]      -0.00032022 [kJ/mol]
      Disp20 (OS)                  -0.00012196 [mEh]      -0.00007653 [kcal/mol]      -0.00032022 [kJ/mol]
      Exch-Disp20 (SS)              0.00000000 [mEh]       0.00000000 [kcal/mol]       0.00000000 [kJ/mol]
      Exch-Disp20 (OS)              0.00000000 [mEh]       0.00000000 [kcal/mol]       0.00000000 [kJ/mol]

  Total HF                          0.01071399 [mEh]       0.00672313 [kcal/mol]       0.02812957 [kJ/mol]
  Total SAPT0                       0.01047006 [mEh]       0.00657006 [kcal/mol]       0.02748914 [kJ/mol]

  Special recipe for scaled SAPT0 (see Manual):
    Electrostatics sSAPT0           0.01066659 [mEh]       0.00669339 [kcal/mol]       0.02800514 [kJ/mol]
    Exchange sSAPT0                 0.00000000 [mEh]       0.00000000 [kcal/mol]       0.00000000 [kJ/mol]
    Induction sSAPT0                0.00004739 [mEh]       0.00002974 [kcal/mol]       0.00012443 [kJ/mol]
    Dispersion sSAPT0              -0.00024393 [mEh]      -0.00015307 [kcal/mol]      -0.00064044 [kJ/mol]
  Total sSAPT0                      0.01047006 [mEh]       0.00657006 [kcal/mol]       0.02748914 [kJ/mol]
  --------------------------------------------------------------------------------------------------------

*** Psi4 exiting successfully. Buy a developer a beer!
