                               Psi4 1.4rc3

  ==> Input File <==

--------------------------------------------------------------------------
# PSI4 file produced by CrystaLattE

# Generated from:               pyrazole.xyz
# Psithon input for N-mer:      2mer-0+29
# Number of atoms per monomer:  [9, 9]
# Number of replicas:           1
# COM priority:                 1.969459548413e-04
# Minimum COM separations:      9.095
# Separation priority:          1.161744229750e-03
# Minimum monomer separations:  5.034
# Cutoff priority:              1.221276589066e-04
# Nuclear repulsion energy:     409.7199779874523

memory 7 GB

molecule Dimer_0_29 {
  N            6.27981210      -4.25303372       0.19313865
  N            6.06870777      -2.28125697       1.80544317
  H            3.66871156      -5.64628941      -1.96684001
  H            0.69034521      -2.37545694      -0.42864236
  H            3.35917442       0.17650601       3.09265017
  H            7.35266782      -1.99461311       2.90680702
  C            3.77952586      -1.21508453       1.76858172
  C            2.38242998      -2.55505538       0.04607681
  C            4.01771468      -4.38410490      -0.88761863
--
  N            2.79813836       9.60054745      14.38697326
  N            2.91700062       7.56264041      12.84979954
  H            5.47130109      12.00145742      15.10500361
  H            8.36593765       9.55891867      12.34986611
  H            5.42951358       5.84586966      10.44522980
  H            1.45459240       6.75266336      12.46403422
  C            5.19983702       7.23246474      11.82075069
  C            6.68282945       9.16213696      12.71067316
  C            5.12152412      10.54730477      14.30237111
units = au
no_com
no_reorient
}

set {
  e_convergence 10
  d_convergence 10
  scf_type df
  mp2_type df
  cc_type df
  freeze_core true
}

energy('sapt0/aug-cc-pvdz')

--------------------------------------------------------------------------

  //              Dimer HF             //
    Molecular point group: c1
  Charge       = 0
  Multiplicity = 1
  Basis Set: AUG-CC-PVDZ
    Blend: AUG-CC-PVDZ
  Basis Set: (AUG-CC-PVDZ AUX)
    Blend: AUG-CC-PVDZ-JKFIT
  @DF-RHF Final Energy:  -449.52427739979726
    Total Energy =                       -449.5242773997972563
  //            Monomer A HF           //
    Molecular point group: c1
  Multiplicity = 1
  Basis Set: AUG-CC-PVDZ
    Blend: AUG-CC-PVDZ
  Basis Set: (AUG-CC-PVDZ AUX)
    Blend: AUG-CC-PVDZ-JKFIT
  @DF-RHF Final Energy:  -224.76238203003115
    Total Energy =                       -224.7623820300311479
  //            Monomer B HF           //
    Molecular point group: c1

    Geometry (in Bohr), charge = 0, multiplicity = 1:

       Center              X                  Y                   Z               Mass
    ------------   -----------------  -----------------  -----------------  -----------------
      Gh(N)           6.279812100000    -4.253033720000     0.193138650000    14.003074004430
      Gh(N)           6.068707770000    -2.281256970000     1.805443170000    14.003074004430
      Gh(H)           3.668711560000    -5.646289410000    -1.966840010000     1.007825032230
      Gh(H)           0.690345210000    -2.375456940000    -0.428642360000     1.007825032230
      Gh(H)           3.359174420000     0.176506010000     3.092650170000     1.007825032230
      Gh(H)           7.352667820000    -1.994613110000     2.906807020000     1.007825032230
      Gh(C)           3.779525860000    -1.215084530000     1.768581720000    12.000000000000
      Gh(C)           2.382429980000    -2.555055380000     0.046076810000    12.000000000000
      Gh(C)           4.017714680000    -4.384104900000    -0.887618630000    12.000000000000
         N            2.798138360000     9.600547450000    14.386973260000    14.003074004430
         N            2.917000620000     7.562640410000    12.849799540000    14.003074004430
         H            5.471301090000    12.001457420000    15.105003610000     1.007825032230
         H            8.365937650000     9.558918670000    12.349866110000     1.007825032230
         H            5.429513580000     5.845869660000    10.445229800000     1.007825032230
         H            1.454592400000     6.752663360000    12.464034220000     1.007825032230
         C            5.199837020000     7.232464740000    11.820750690000    12.000000000000
         C            6.682829450000     9.162136960000    12.710673160000    12.000000000000
         C            5.121524120000    10.547304770000    14.302371110000    12.000000000000

  Charge       = 0
  Multiplicity = 1
  Basis Set: AUG-CC-PVDZ
    Blend: AUG-CC-PVDZ
  Basis Set: (AUG-CC-PVDZ AUX)
    Blend: AUG-CC-PVDZ-JKFIT

    Orbital Energies [Eh]
    ---------------------

    Doubly Occupied:

       1A    -15.636235     2A    -15.592296     3A    -11.279895
       4A    -11.237757     5A    -11.209883     6A     -1.387002
       7A     -1.121896     8A     -1.066929     9A     -0.872762
      10A     -0.837043    11A     -0.757275    12A     -0.645747
      13A     -0.620832    14A     -0.609177    15A     -0.583907
      16A     -0.461415    17A     -0.370715    18A     -0.346056

  @DF-RHF Final Energy:  -224.76247355487800

   => Energetics <=

    Nuclear Repulsion Energy =            166.6286028669668440
    One-Electron Energy =                -633.5085070233405986
    Two-Electron Energy =                 242.1174306014957551
    Total Energy =                       -224.7624735548779995

  Dipole Moment: [D]
     X:     0.7396      Y:    -1.4333      Z:    -1.7872     Total:     2.4074

    SAPT Results
  --------------------------------------------------------------------------------------------------------
    Electrostatics                  0.59334124 [mEh]       0.37232725 [kcal/mol]       1.55781722 [kJ/mol]
      Elst10,r                      0.59334124 [mEh]       0.37232725 [kcal/mol]       1.55781722 [kJ/mol]

    Exchange                        0.00006101 [mEh]       0.00003828 [kcal/mol]       0.00016017 [kJ/mol]
      Exch10                        0.00006101 [mEh]       0.00003828 [kcal/mol]       0.00016017 [kJ/mol]
      Exch10(S^2)                   0.00006101 [mEh]       0.00003828 [kcal/mol]       0.00016017 [kJ/mol]

    Induction                      -0.01521714 [mEh]      -0.00954890 [kcal/mol]      -0.03995259 [kJ/mol]
      Ind20,r                      -0.01565663 [mEh]      -0.00982468 [kcal/mol]      -0.04110647 [kJ/mol]
      Exch-Ind20,r                  0.00006289 [mEh]       0.00003946 [kcal/mol]       0.00016511 [kJ/mol]
      delta HF,r (2)                0.00037661 [mEh]       0.00023632 [kcal/mol]       0.00098878 [kJ/mol]

    Dispersion                     -0.07693906 [mEh]      -0.04827999 [kcal/mol]      -0.20200348 [kJ/mol]
      Disp20                       -0.07694704 [mEh]      -0.04828500 [kcal/mol]      -0.20202443 [kJ/mol]
      Exch-Disp20                   0.00000798 [mEh]       0.00000501 [kcal/mol]       0.00002094 [kJ/mol]
      Disp20 (SS)                  -0.03847352 [mEh]      -0.02414250 [kcal/mol]      -0.10101221 [kJ/mol]
      Disp20 (OS)                  -0.03847352 [mEh]      -0.02414250 [kcal/mol]      -0.10101221 [kJ/mol]
      Exch-Disp20 (SS)              0.00000645 [mEh]       0.00000405 [kcal/mol]       0.00001692 [kJ/mol]
      Exch-Disp20 (OS)              0.00000153 [mEh]       0.00000096 [kcal/mol]       0.00000402 [kJ/mol]

  Total HF                          0.57818511 [mEh]       0.36281664 [kcal/mol]       1.51802480 [kJ/mol]
  Total SAPT0                       0.50124605 [mEh]       0.31453664 [kcal/mol]       1.31602132 [kJ/mol]

  Special recipe for scaled SAPT0 (see Manual):
    Electrostatics sSAPT0           0.59334124 [mEh]       0.37232725 [kcal/mol]       1.55781722 [kJ/mol]
    Exchange sSAPT0                 0.00006101 [mEh]       0.00003828 [kcal/mol]       0.00016017 [kJ/mol]
    Induction sSAPT0               -0.01521714 [mEh]      -0.00954890 [kcal/mol]      -0.03995259 [kJ/mol]
    Dispersion sSAPT0              -0.07693906 [mEh]      -0.04827999 [kcal/mol]      -0.20200348 [kJ/mol]
  Total sSAPT0                      0.50124605 [mEh]       0.31453664 [kcal/mol]       1.31602132 [kJ/mol]
  --------------------------------------------------------------------------------------------------------

*** Psi4 exiting successfully. Buy a developer a beer!
