                               Psi4 1.4rc3

  ==> Input File <==

--------------------------------------------------------------------------
# PSI4 file produced by CrystaLattE

# Generated from:               pyrazole.xyz
# Psithon input for N-mer:      2mer-0+260
# Number of atoms per monomer:  [9, 9]
# Number of replicas:           2
# COM priority:                 2.901685467407e-05
# Minimum COM separations:      17.221
# Separation priority:          4.719974639787e-05
# Minimum monomer separations:  14.643
# Cutoff priority:              1.705766392619e-06
# Nuclear repulsion energy:     373.0079873723014

memory 7 GB

molecule Dimer_0_260 {
  N            6.27981210      -4.25303372       0.19313865
  N            6.06870777      -2.28125697       1.80544317
  H            3.66871156      -5.64628941      -1.96684001
  H            0.69034521      -2.37545694      -0.42864236
  H            3.35917442       0.17650601       3.09265017
  H            7.35266782      -1.99461311       2.90680702
  C            3.77952586      -1.21508453       1.76858172
  C            2.38242998      -2.55505538       0.04607681
  C            4.01771468      -4.38410490      -0.88761863
--
  N            6.27981210      -7.53338133      32.19092627
  N            6.06870777      -9.50515808      33.80323079
  H            3.66871156      -6.14012564      30.03094761
  H            0.69034521      -9.41095811      31.56914526
  H            3.35917442     -11.96292106      35.09043779
  H            7.35266782      -9.79180194      34.90459464
  C            3.77952586     -10.57133052      33.76636934
  C            2.38242998      -9.23135967      32.04386443
  C            4.01771468      -7.40231015      31.11016899
units = au
no_com
no_reorient
}

set {
  e_convergence 10
  d_convergence 10
  scf_type df
  mp2_type df
  cc_type df
  freeze_core true
}

energy('sapt0/aug-cc-pvdz')

--------------------------------------------------------------------------

  //              Dimer HF             //
    Molecular point group: c1
  Charge       = 0
  Multiplicity = 1
  Basis Set: AUG-CC-PVDZ
    Blend: AUG-CC-PVDZ
  Basis Set: (AUG-CC-PVDZ AUX)
    Blend: AUG-CC-PVDZ-JKFIT
  @DF-RHF Final Energy:  -449.52469852211539
    Total Energy =                       -449.5246985221153864
  //            Monomer A HF           //
    Molecular point group: c1
  Multiplicity = 1
  Basis Set: AUG-CC-PVDZ
    Blend: AUG-CC-PVDZ
  Basis Set: (AUG-CC-PVDZ AUX)
    Blend: AUG-CC-PVDZ-JKFIT
  @DF-RHF Final Energy:  -224.76233952204785
    Total Energy =                       -224.7623395220478528
  //            Monomer B HF           //
    Molecular point group: c1

    Geometry (in Bohr), charge = 0, multiplicity = 1:

       Center              X                  Y                   Z               Mass
    ------------   -----------------  -----------------  -----------------  -----------------
      Gh(N)           6.279812100000    -4.253033720000     0.193138650000    14.003074004430
      Gh(N)           6.068707770000    -2.281256970000     1.805443170000    14.003074004430
      Gh(H)           3.668711560000    -5.646289410000    -1.966840010000     1.007825032230
      Gh(H)           0.690345210000    -2.375456940000    -0.428642360000     1.007825032230
      Gh(H)           3.359174420000     0.176506010000     3.092650170000     1.007825032230
      Gh(H)           7.352667820000    -1.994613110000     2.906807020000     1.007825032230
      Gh(C)           3.779525860000    -1.215084530000     1.768581720000    12.000000000000
      Gh(C)           2.382429980000    -2.555055380000     0.046076810000    12.000000000000
      Gh(C)           4.017714680000    -4.384104900000    -0.887618630000    12.000000000000
         N            6.279812100000    -7.533381330000    32.190926270000    14.003074004430
         N            6.068707770000    -9.505158080000    33.803230790000    14.003074004430
         H            3.668711560000    -6.140125640000    30.030947610000     1.007825032230
         H            0.690345210000    -9.410958110000    31.569145260000     1.007825032230
         H            3.359174420000   -11.962921060000    35.090437790000     1.007825032230
         H            7.352667820000    -9.791801940000    34.904594640000     1.007825032230
         C            3.779525860000   -10.571330520000    33.766369340000    12.000000000000
         C            2.382429980000    -9.231359670000    32.043864430000    12.000000000000
         C            4.017714680000    -7.402310150000    31.110168990000    12.000000000000

  Charge       = 0
  Multiplicity = 1
  Basis Set: AUG-CC-PVDZ
    Blend: AUG-CC-PVDZ
  Basis Set: (AUG-CC-PVDZ AUX)
    Blend: AUG-CC-PVDZ-JKFIT

    Orbital Energies [Eh]
    ---------------------

    Doubly Occupied:

       1A    -15.636223     2A    -15.592313     3A    -11.279894
       4A    -11.237784     5A    -11.209891     6A     -1.386922
       7A     -1.121901     8A     -1.066898     9A     -0.872768
      10A     -0.837061    11A     -0.757292    12A     -0.645746
      13A     -0.620834    14A     -0.609140    15A     -0.583920
      16A     -0.461404    17A     -0.370721    18A     -0.346048

  @DF-RHF Final Energy:  -224.76233952188792

   => Energetics <=

    Nuclear Repulsion Energy =            166.6240564503272026
    One-Electron Energy =                -633.4992733919154944
    Two-Electron Energy =                 242.1128774197003679
    Total Energy =                       -224.7623395218879239

  Dipole Moment: [D]
     X:    -1.0235      Y:    -1.6055      Z:     1.4733     Total:     2.4075

    SAPT Results
  --------------------------------------------------------------------------------------------------------
    Electrostatics                 -0.01947503 [mEh]      -0.01222077 [kcal/mol]      -0.05113169 [kJ/mol]
      Elst10,r                     -0.01947503 [mEh]      -0.01222077 [kcal/mol]      -0.05113169 [kJ/mol]

    Exchange                        0.00000000 [mEh]       0.00000000 [kcal/mol]       0.00000000 [kJ/mol]
      Exch10                        0.00000000 [mEh]       0.00000000 [kcal/mol]       0.00000000 [kJ/mol]
      Exch10(S^2)                   0.00000000 [mEh]       0.00000000 [kcal/mol]       0.00000000 [kJ/mol]

    Induction                      -0.00000315 [mEh]      -0.00000197 [kcal/mol]      -0.00000826 [kJ/mol]
      Ind20,r                      -0.00006957 [mEh]      -0.00004366 [kcal/mol]      -0.00018267 [kJ/mol]
      Exch-Ind20,r                  0.00000000 [mEh]       0.00000000 [kcal/mol]       0.00000000 [kJ/mol]
      delta HF,r (2)                0.00006643 [mEh]       0.00004168 [kcal/mol]       0.00017440 [kJ/mol]

    Dispersion                     -0.00094468 [mEh]      -0.00059280 [kcal/mol]      -0.00248026 [kJ/mol]
      Disp20                       -0.00094468 [mEh]      -0.00059280 [kcal/mol]      -0.00248026 [kJ/mol]
      Exch-Disp20                   0.00000000 [mEh]       0.00000000 [kcal/mol]       0.00000000 [kJ/mol]
      Disp20 (SS)                  -0.00047234 [mEh]      -0.00029640 [kcal/mol]      -0.00124013 [kJ/mol]
      Disp20 (OS)                  -0.00047234 [mEh]      -0.00029640 [kcal/mol]      -0.00124013 [kJ/mol]
      Exch-Disp20 (SS)              0.00000000 [mEh]       0.00000000 [kcal/mol]       0.00000000 [kJ/mol]
      Exch-Disp20 (OS)              0.00000000 [mEh]       0.00000000 [kcal/mol]       0.00000000 [kJ/mol]

  Total HF                         -0.01947818 [mEh]      -0.01222274 [kcal/mol]      -0.05113995 [kJ/mol]
  Total SAPT0                      -0.02042286 [mEh]      -0.01281554 [kcal/mol]      -0.05362021 [kJ/mol]

  Special recipe for scaled SAPT0 (see Manual):
    Electrostatics sSAPT0          -0.01947503 [mEh]      -0.01222077 [kcal/mol]      -0.05113169 [kJ/mol]
    Exchange sSAPT0                 0.00000000 [mEh]       0.00000000 [kcal/mol]       0.00000000 [kJ/mol]
    Induction sSAPT0               -0.00000315 [mEh]      -0.00000197 [kcal/mol]      -0.00000826 [kJ/mol]
    Dispersion sSAPT0              -0.00094468 [mEh]      -0.00059280 [kcal/mol]      -0.00248026 [kJ/mol]
  Total sSAPT0                     -0.02042286 [mEh]      -0.01281554 [kcal/mol]      -0.05362021 [kJ/mol]
  --------------------------------------------------------------------------------------------------------

*** Psi4 exiting successfully. Buy a developer a beer!
