                               Psi4 1.4rc3

  ==> Input File <==

--------------------------------------------------------------------------
# PSI4 file produced by CrystaLattE

# Generated from:               pyrazole.xyz
# Psithon input for N-mer:      2mer-0+123
# Number of atoms per monomer:  [9, 9]
# Number of replicas:           1
# COM priority:                 2.986909778123e-05
# Minimum COM separations:      17.055
# Separation priority:          6.707071559141e-05
# Minimum monomer separations:  13.024
# Cutoff priority:              2.725067431137e-06
# Nuclear repulsion energy:     373.67217624836576

memory 7 GB

molecule Dimer_0_123 {
  N            6.27981210      -4.25303372       0.19313865
  N            6.06870777      -2.28125697       1.80544317
  H            3.66871156      -5.64628941      -1.96684001
  H            0.69034521      -2.37545694      -0.42864236
  H            3.35917442       0.17650601       3.09265017
  H            7.35266782      -1.99461311       2.90680702
  C            3.77952586      -1.21508453       1.76858172
  C            2.38242998      -2.55505538       0.04607681
  C            4.01771468      -4.38410490      -0.88761863
--
  N          -28.15557558       2.40090997       7.98741574
  N          -28.03671332       4.43881700       6.45024202
  H          -25.48241284       0.00000000       8.70544609
  H          -22.58777629       2.44253874       5.95030859
  H          -25.52420036       6.15558776       4.04567228
  H          -29.49912153       5.24879406       6.06447669
  C          -25.75387692       4.76899267       5.42119317
  C          -24.27088448       2.83932046       6.31111564
  C          -25.83218981       1.45415264       7.90281359
units = au
no_com
no_reorient
}

set {
  e_convergence 10
  d_convergence 10
  scf_type df
  mp2_type df
  cc_type df
  freeze_core true
}

energy('sapt0/aug-cc-pvdz')

--------------------------------------------------------------------------

  //              Dimer HF             //
    Molecular point group: c1
  Charge       = 0
  Multiplicity = 1
  Basis Set: AUG-CC-PVDZ
    Blend: AUG-CC-PVDZ
  Basis Set: (AUG-CC-PVDZ AUX)
    Blend: AUG-CC-PVDZ-JKFIT
  @DF-RHF Final Energy:  -449.52476375819452
    Total Energy =                       -449.5247637581944673
  //            Monomer A HF           //
    Molecular point group: c1
  Multiplicity = 1
  Basis Set: AUG-CC-PVDZ
    Blend: AUG-CC-PVDZ
  Basis Set: (AUG-CC-PVDZ AUX)
    Blend: AUG-CC-PVDZ-JKFIT
  @DF-RHF Final Energy:  -224.76233952373980
    Total Energy =                       -224.7623395237397972
  //            Monomer B HF           //
    Molecular point group: c1

    Geometry (in Bohr), charge = 0, multiplicity = 1:

       Center              X                  Y                   Z               Mass
    ------------   -----------------  -----------------  -----------------  -----------------
      Gh(N)           6.279812100000    -4.253033720000     0.193138650000    14.003074004430
      Gh(N)           6.068707770000    -2.281256970000     1.805443170000    14.003074004430
      Gh(H)           3.668711560000    -5.646289410000    -1.966840010000     1.007825032230
      Gh(H)           0.690345210000    -2.375456940000    -0.428642360000     1.007825032230
      Gh(H)           3.359174420000     0.176506010000     3.092650170000     1.007825032230
      Gh(H)           7.352667820000    -1.994613110000     2.906807020000     1.007825032230
      Gh(C)           3.779525860000    -1.215084530000     1.768581720000    12.000000000000
      Gh(C)           2.382429980000    -2.555055380000     0.046076810000    12.000000000000
      Gh(C)           4.017714680000    -4.384104900000    -0.887618630000    12.000000000000
         N          -28.155575580000     2.400909970000     7.987415740000    14.003074004430
         N          -28.036713320000     4.438817000000     6.450242020000    14.003074004430
         H          -25.482412840000     0.000000000000     8.705446090000     1.007825032230
         H          -22.587776290000     2.442538740000     5.950308590000     1.007825032230
         H          -25.524200360000     6.155587760000     4.045672280000     1.007825032230
         H          -29.499121530000     5.248794060000     6.064476690000     1.007825032230
         C          -25.753876920000     4.768992670000     5.421193170000    12.000000000000
         C          -24.270884480000     2.839320460000     6.311115640000    12.000000000000
         C          -25.832189810000     1.454152640000     7.902813590000    12.000000000000

  Charge       = 0
  Multiplicity = 1
  Basis Set: AUG-CC-PVDZ
    Blend: AUG-CC-PVDZ
  Basis Set: (AUG-CC-PVDZ AUX)
    Blend: AUG-CC-PVDZ-JKFIT

    Orbital Energies [Eh]
    ---------------------

    Doubly Occupied:

       1A    -15.636233     2A    -15.592291     3A    -11.279903
       4A    -11.237759     5A    -11.209884     6A     -1.387001
       7A     -1.121894     8A     -1.066928     9A     -0.872759
      10A     -0.837039    11A     -0.757272    12A     -0.645745
      13A     -0.620828    14A     -0.609177    15A     -0.583905
      16A     -0.461413    17A     -0.370715    18A     -0.346055

  @DF-RHF Final Energy:  -224.76243506354263

   => Energetics <=

    Nuclear Repulsion Energy =            166.6286028102341561
    One-Electron Energy =                -633.5084734732789684
    Two-Electron Energy =                 242.1174355995021870
    Total Energy =                       -224.7624350635426254

  Dipole Moment: [D]
     X:     0.7394      Y:     1.4336      Z:    -1.7871     Total:     2.4074

    SAPT Results
  --------------------------------------------------------------------------------------------------------
    Electrostatics                  0.01076618 [mEh]       0.00675588 [kcal/mol]       0.02826661 [kJ/mol]
      Elst10,r                      0.01076618 [mEh]       0.00675588 [kcal/mol]       0.02826661 [kJ/mol]

    Exchange                        0.00000002 [mEh]       0.00000001 [kcal/mol]       0.00000004 [kJ/mol]
      Exch10                        0.00000002 [mEh]       0.00000001 [kcal/mol]       0.00000004 [kJ/mol]
      Exch10(S^2)                   0.00000002 [mEh]       0.00000001 [kcal/mol]       0.00000004 [kJ/mol]

    Induction                       0.00006289 [mEh]       0.00003946 [kcal/mol]       0.00016511 [kJ/mol]
      Ind20,r                      -0.00005079 [mEh]      -0.00003187 [kcal/mol]      -0.00013335 [kJ/mol]
      Exch-Ind20,r                  0.00000002 [mEh]       0.00000001 [kcal/mol]       0.00000006 [kJ/mol]
      delta HF,r (2)                0.00011365 [mEh]       0.00007132 [kcal/mol]       0.00029839 [kJ/mol]

    Dispersion                     -0.00125092 [mEh]      -0.00078496 [kcal/mol]      -0.00328428 [kJ/mol]
      Disp20                       -0.00125092 [mEh]      -0.00078496 [kcal/mol]      -0.00328429 [kJ/mol]
      Exch-Disp20                   0.00000000 [mEh]       0.00000000 [kcal/mol]       0.00000000 [kJ/mol]
      Disp20 (SS)                  -0.00062546 [mEh]      -0.00039248 [kcal/mol]      -0.00164214 [kJ/mol]
      Disp20 (OS)                  -0.00062546 [mEh]      -0.00039248 [kcal/mol]      -0.00164214 [kJ/mol]
      Exch-Disp20 (SS)              0.00000000 [mEh]       0.00000000 [kcal/mol]       0.00000000 [kJ/mol]
      Exch-Disp20 (OS)              0.00000000 [mEh]       0.00000000 [kcal/mol]       0.00000000 [kJ/mol]

  Total HF                          0.01082909 [mEh]       0.00679536 [kcal/mol]       0.02843177 [kJ/mol]
  Total SAPT0                       0.00957817 [mEh]       0.00601039 [kcal/mol]       0.02514748 [kJ/mol]

  Special recipe for scaled SAPT0 (see Manual):
    Electrostatics sSAPT0           0.01076618 [mEh]       0.00675588 [kcal/mol]       0.02826661 [kJ/mol]
    Exchange sSAPT0                 0.00000002 [mEh]       0.00000001 [kcal/mol]       0.00000004 [kJ/mol]
    Induction sSAPT0                0.00006289 [mEh]       0.00003946 [kcal/mol]       0.00016511 [kJ/mol]
    Dispersion sSAPT0              -0.00125092 [mEh]      -0.00078496 [kcal/mol]      -0.00328428 [kJ/mol]
  Total sSAPT0                      0.00957817 [mEh]       0.00601039 [kcal/mol]       0.02514748 [kJ/mol]
  --------------------------------------------------------------------------------------------------------

*** Psi4 exiting successfully. Buy a developer a beer!
