                               Psi4 1.4rc3

  ==> Input File <==

--------------------------------------------------------------------------
# PSI4 file produced by CrystaLattE

# Generated from:               pyrazole.xyz
# Psithon input for N-mer:      2mer-0+30
# Number of atoms per monomer:  [9, 9]
# Number of replicas:           2
# COM priority:                 1.783262960946e-04
# Minimum COM separations:      9.401
# Separation priority:          5.904304172338e-04
# Minimum monomer separations:  6.308
# Cutoff priority:              4.953265766770e-05
# Nuclear repulsion energy:     406.71194987664387

memory 7 GB

molecule Dimer_0_30 {
  N            6.27981210      -4.25303372       0.19313865
  N            6.06870777      -2.28125697       1.80544317
  H            3.66871156      -5.64628941      -1.96684001
  H            0.69034521      -2.37545694      -0.42864236
  H            3.35917442       0.17650601       3.09265017
  H            7.35266782      -1.99461311       2.90680702
  C            3.77952586      -1.21508453       1.76858172
  C            2.38242998      -2.55505538       0.04607681
  C            4.01771468      -4.38410490      -0.88761863
--
  N           -9.19704487      -7.53338133      -6.20641888
  N           -9.40814920      -9.50515808      -4.59411436
  H          -11.80814541      -6.14012564      -8.36639753
  H          -14.78651176      -9.41095811      -6.82819989
  H          -12.11768255     -11.96292106      -3.30690735
  H           -8.12418914      -9.79180194      -3.49275051
  C          -11.69733111     -10.57133052      -4.63097581
  C          -13.09442699      -9.23135967      -6.35348071
  C          -11.45914228      -7.40231015      -7.28717615
units = au
no_com
no_reorient
}

set {
  e_convergence 10
  d_convergence 10
  scf_type df
  mp2_type df
  cc_type df
  freeze_core true
}

energy('sapt0/aug-cc-pvdz')

--------------------------------------------------------------------------

  //              Dimer HF             //
    Molecular point group: c1
  Charge       = 0
  Multiplicity = 1
  Basis Set: AUG-CC-PVDZ
    Blend: AUG-CC-PVDZ
  Basis Set: (AUG-CC-PVDZ AUX)
    Blend: AUG-CC-PVDZ-JKFIT
  @DF-RHF Final Energy:  -449.52481970123989
    Total Energy =                       -449.5248197012398350
  //            Monomer A HF           //
    Molecular point group: c1
  Multiplicity = 1
  Basis Set: AUG-CC-PVDZ
    Blend: AUG-CC-PVDZ
  Basis Set: (AUG-CC-PVDZ AUX)
    Blend: AUG-CC-PVDZ-JKFIT
  @DF-RHF Final Energy:  -224.76235764389074
    Total Energy =                       -224.7623576438907378
  //            Monomer B HF           //
    Molecular point group: c1

    Geometry (in Bohr), charge = 0, multiplicity = 1:

       Center              X                  Y                   Z               Mass
    ------------   -----------------  -----------------  -----------------  -----------------
      Gh(N)           6.279812100000    -4.253033720000     0.193138650000    14.003074004430
      Gh(N)           6.068707770000    -2.281256970000     1.805443170000    14.003074004430
      Gh(H)           3.668711560000    -5.646289410000    -1.966840010000     1.007825032230
      Gh(H)           0.690345210000    -2.375456940000    -0.428642360000     1.007825032230
      Gh(H)           3.359174420000     0.176506010000     3.092650170000     1.007825032230
      Gh(H)           7.352667820000    -1.994613110000     2.906807020000     1.007825032230
      Gh(C)           3.779525860000    -1.215084530000     1.768581720000    12.000000000000
      Gh(C)           2.382429980000    -2.555055380000     0.046076810000    12.000000000000
      Gh(C)           4.017714680000    -4.384104900000    -0.887618630000    12.000000000000
         N           -9.197044870000    -7.533381330000    -6.206418880000    14.003074004430
         N           -9.408149200000    -9.505158080000    -4.594114360000    14.003074004430
         H          -11.808145410000    -6.140125640000    -8.366397530000     1.007825032230
         H          -14.786511760000    -9.410958110000    -6.828199890000     1.007825032230
         H          -12.117682550000   -11.962921060000    -3.306907350000     1.007825032230
         H           -8.124189140000    -9.791801940000    -3.492750510000     1.007825032230
         C          -11.697331110000   -10.571330520000    -4.630975810000    12.000000000000
         C          -13.094426990000    -9.231359670000    -6.353480710000    12.000000000000
         C          -11.459142280000    -7.402310150000    -7.287176150000    12.000000000000

  Charge       = 0
  Multiplicity = 1
  Basis Set: AUG-CC-PVDZ
    Blend: AUG-CC-PVDZ
  Basis Set: (AUG-CC-PVDZ AUX)
    Blend: AUG-CC-PVDZ-JKFIT

    Orbital Energies [Eh]
    ---------------------

    Doubly Occupied:

       1A    -15.636221     2A    -15.592319     3A    -11.279891
       4A    -11.237783     5A    -11.209891     6A     -1.386921
       7A     -1.121902     8A     -1.066898     9A     -0.872768
      10A     -0.837061    11A     -0.757292    12A     -0.645746
      13A     -0.620834    14A     -0.609139    15A     -0.583920
      16A     -0.461405    17A     -0.370720    18A     -0.346048

  @DF-RHF Final Energy:  -224.76235180946480

   => Energetics <=

    Nuclear Repulsion Energy =            166.6240565546453354
    One-Electron Energy =                -633.4993035883314860
    Two-Electron Energy =                 242.1128952242213472
    Total Energy =                       -224.7623518094648034

  Dipole Moment: [D]
     X:    -1.0231      Y:    -1.6054      Z:     1.4734     Total:     2.4072

    SAPT Results
  --------------------------------------------------------------------------------------------------------
    Electrostatics                 -0.10719733 [mEh]      -0.06726734 [kcal/mol]      -0.28144656 [kJ/mol]
      Elst10,r                     -0.10719733 [mEh]      -0.06726734 [kcal/mol]      -0.28144656 [kJ/mol]

    Exchange                        0.00000602 [mEh]       0.00000378 [kcal/mol]       0.00001581 [kJ/mol]
      Exch10                        0.00000602 [mEh]       0.00000378 [kcal/mol]       0.00001581 [kJ/mol]
      Exch10(S^2)                   0.00000602 [mEh]       0.00000378 [kcal/mol]       0.00001581 [kJ/mol]

    Induction                      -0.00305657 [mEh]      -0.00191803 [kcal/mol]      -0.00802503 [kJ/mol]
      Ind20,r                      -0.00325140 [mEh]      -0.00204029 [kcal/mol]      -0.00853656 [kJ/mol]
      Exch-Ind20,r                  0.00001400 [mEh]       0.00000879 [kcal/mol]       0.00003676 [kJ/mol]
      delta HF,r (2)                0.00018083 [mEh]       0.00011347 [kcal/mol]       0.00047476 [kJ/mol]

    Dispersion                     -0.05235538 [mEh]      -0.03285349 [kcal/mol]      -0.13745902 [kJ/mol]
      Disp20                       -0.05235754 [mEh]      -0.03285485 [kcal/mol]      -0.13746471 [kJ/mol]
      Exch-Disp20                   0.00000217 [mEh]       0.00000136 [kcal/mol]       0.00000569 [kJ/mol]
      Disp20 (SS)                  -0.02617877 [mEh]      -0.01642743 [kcal/mol]      -0.06873235 [kJ/mol]
      Disp20 (OS)                  -0.02617877 [mEh]      -0.01642743 [kcal/mol]      -0.06873235 [kJ/mol]
      Exch-Disp20 (SS)              0.00000179 [mEh]       0.00000113 [kcal/mol]       0.00000471 [kJ/mol]
      Exch-Disp20 (OS)              0.00000037 [mEh]       0.00000023 [kcal/mol]       0.00000098 [kJ/mol]

  Total HF                         -0.11024788 [mEh]      -0.06918159 [kcal/mol]      -0.28945578 [kJ/mol]
  Total SAPT0                      -0.16260326 [mEh]      -0.10203509 [kcal/mol]      -0.42691480 [kJ/mol]

  Special recipe for scaled SAPT0 (see Manual):
    Electrostatics sSAPT0          -0.10719733 [mEh]      -0.06726734 [kcal/mol]      -0.28144656 [kJ/mol]
    Exchange sSAPT0                 0.00000602 [mEh]       0.00000378 [kcal/mol]       0.00001581 [kJ/mol]
    Induction sSAPT0               -0.00305657 [mEh]      -0.00191803 [kcal/mol]      -0.00802503 [kJ/mol]
    Dispersion sSAPT0              -0.05235538 [mEh]      -0.03285349 [kcal/mol]      -0.13745902 [kJ/mol]
  Total sSAPT0                     -0.16260326 [mEh]      -0.10203509 [kcal/mol]      -0.42691480 [kJ/mol]
  --------------------------------------------------------------------------------------------------------

*** Psi4 exiting successfully. Buy a developer a beer!
