                               Psi4 1.4rc3

  ==> Input File <==

--------------------------------------------------------------------------
# PSI4 file produced by CrystaLattE

# Generated from:               pyrazole.xyz
# Psithon input for N-mer:      2mer-0+348
# Number of atoms per monomer:  [9, 9]
# Number of replicas:           1
# COM priority:                 2.663006281527e-05
# Minimum COM separations:      17.721
# Separation priority:          5.053566582772e-05
# Minimum monomer separations:  14.313
# Cutoff priority:              1.868374750090e-06
# Nuclear repulsion energy:     372.02733439122403

memory 7 GB

molecule Dimer_0_348 {
  N            6.27981210      -4.25303372       0.19313865
  N            6.06870777      -2.28125697       1.80544317
  H            3.66871156      -5.64628941      -1.96684001
  H            0.69034521      -2.37545694      -0.42864236
  H            3.35917442       0.17650601       3.09265017
  H            7.35266782      -1.99461311       2.90680702
  C            3.77952586      -1.21508453       1.76858172
  C            2.38242998      -2.55505538       0.04607681
  C            4.01771468      -4.38410490      -0.88761863
--
  N           10.53656684     -33.28089873     -14.34089645
  N           10.65542910     -31.24299170     -12.80372273
  H           13.20972957     -35.68180870     -15.05892680
  H           16.10436613     -33.23926996     -12.30378930
  H           13.16794206     -29.52622094     -10.39915299
  H            9.19302089     -30.43301464     -12.41795740
  C           12.93826550     -30.91281603     -11.77467388
  C           14.42125794     -32.84248824     -12.66459635
  C           12.85995261     -34.22765606     -14.25629430
units = au
no_com
no_reorient
}

set {
  e_convergence 10
  d_convergence 10
  scf_type df
  mp2_type df
  cc_type df
  freeze_core true
}

energy('sapt0/aug-cc-pvdz')

--------------------------------------------------------------------------

  //              Dimer HF             //
    Molecular point group: c1
  Charge       = 0
  Multiplicity = 1
  Basis Set: AUG-CC-PVDZ
    Blend: AUG-CC-PVDZ
  Basis Set: (AUG-CC-PVDZ AUX)
    Blend: AUG-CC-PVDZ-JKFIT
  @DF-RHF Final Energy:  -449.52482001610656
    Total Energy =                       -449.5248200161065597
  //            Monomer A HF           //
    Molecular point group: c1
  Multiplicity = 1
  Basis Set: AUG-CC-PVDZ
    Blend: AUG-CC-PVDZ
  Basis Set: (AUG-CC-PVDZ AUX)
    Blend: AUG-CC-PVDZ-JKFIT
  @DF-RHF Final Energy:  -224.76233952200380
    Total Energy =                       -224.7623395220037992
  //            Monomer B HF           //
    Molecular point group: c1

    Geometry (in Bohr), charge = 0, multiplicity = 1:

       Center              X                  Y                   Z               Mass
    ------------   -----------------  -----------------  -----------------  -----------------
      Gh(N)           6.279812100000    -4.253033720000     0.193138650000    14.003074004430
      Gh(N)           6.068707770000    -2.281256970000     1.805443170000    14.003074004430
      Gh(H)           3.668711560000    -5.646289410000    -1.966840010000     1.007825032230
      Gh(H)           0.690345210000    -2.375456940000    -0.428642360000     1.007825032230
      Gh(H)           3.359174420000     0.176506010000     3.092650170000     1.007825032230
      Gh(H)           7.352667820000    -1.994613110000     2.906807020000     1.007825032230
      Gh(C)           3.779525860000    -1.215084530000     1.768581720000    12.000000000000
      Gh(C)           2.382429980000    -2.555055380000     0.046076810000    12.000000000000
      Gh(C)           4.017714680000    -4.384104900000    -0.887618630000    12.000000000000
         N           10.536566840000   -33.280898730000   -14.340896450000    14.003074004430
         N           10.655429100000   -31.242991700000   -12.803722730000    14.003074004430
         H           13.209729570000   -35.681808700000   -15.058926800000     1.007825032230
         H           16.104366130000   -33.239269960000   -12.303789300000     1.007825032230
         H           13.167942060000   -29.526220940000   -10.399152990000     1.007825032230
         H            9.193020890000   -30.433014640000   -12.417957400000     1.007825032230
         C           12.938265500000   -30.912816030000   -11.774673880000    12.000000000000
         C           14.421257940000   -32.842488240000   -12.664596350000    12.000000000000
         C           12.859952610000   -34.227656060000   -14.256294300000    12.000000000000

  Charge       = 0
  Multiplicity = 1
  Basis Set: AUG-CC-PVDZ
    Blend: AUG-CC-PVDZ
  Basis Set: (AUG-CC-PVDZ AUX)
    Blend: AUG-CC-PVDZ-JKFIT

    Orbital Energies [Eh]
    ---------------------

    Doubly Occupied:

       1A    -15.636233     2A    -15.592291     3A    -11.279903
       4A    -11.237759     5A    -11.209884     6A     -1.387001
       7A     -1.121894     8A     -1.066928     9A     -0.872759
      10A     -0.837039    11A     -0.757272    12A     -0.645745
      13A     -0.620828    14A     -0.609177    15A     -0.583905
      16A     -0.461413    17A     -0.370715    18A     -0.346055

  @DF-RHF Final Energy:  -224.76243506050301

   => Energetics <=

    Nuclear Repulsion Energy =            166.6286028180448682
    One-Electron Energy =                -633.5084734109326519
    Two-Electron Energy =                 242.1174355323847465
    Total Energy =                       -224.7624350605030088

  Dipole Moment: [D]
     X:     0.7394      Y:     1.4336      Z:     1.7871     Total:     2.4074

    SAPT Results
  --------------------------------------------------------------------------------------------------------
    Electrostatics                 -0.04536822 [mEh]      -0.02846899 [kcal/mol]      -0.11911425 [kJ/mol]
      Elst10,r                     -0.04536822 [mEh]      -0.02846899 [kcal/mol]      -0.11911425 [kJ/mol]

    Exchange                        0.00000000 [mEh]       0.00000000 [kcal/mol]       0.00000000 [kJ/mol]
      Exch10                        0.00000000 [mEh]       0.00000000 [kcal/mol]       0.00000000 [kJ/mol]
      Exch10(S^2)                   0.00000000 [mEh]       0.00000000 [kcal/mol]       0.00000000 [kJ/mol]

    Induction                      -0.00006538 [mEh]      -0.00004103 [kcal/mol]      -0.00017165 [kJ/mol]
      Ind20,r                      -0.00012787 [mEh]      -0.00008024 [kcal/mol]      -0.00033572 [kJ/mol]
      Exch-Ind20,r                  0.00000000 [mEh]       0.00000000 [kcal/mol]       0.00000000 [kJ/mol]
      delta HF,r (2)                0.00006249 [mEh]       0.00003921 [kcal/mol]       0.00016407 [kJ/mol]

    Dispersion                     -0.00094335 [mEh]      -0.00059196 [kcal/mol]      -0.00247677 [kJ/mol]
      Disp20                       -0.00094335 [mEh]      -0.00059196 [kcal/mol]      -0.00247677 [kJ/mol]
      Exch-Disp20                   0.00000000 [mEh]       0.00000000 [kcal/mol]       0.00000000 [kJ/mol]
      Disp20 (SS)                  -0.00047168 [mEh]      -0.00029598 [kcal/mol]      -0.00123838 [kJ/mol]
      Disp20 (OS)                  -0.00047168 [mEh]      -0.00029598 [kcal/mol]      -0.00123838 [kJ/mol]
      Exch-Disp20 (SS)              0.00000000 [mEh]       0.00000000 [kcal/mol]       0.00000000 [kJ/mol]
      Exch-Disp20 (OS)              0.00000000 [mEh]       0.00000000 [kcal/mol]       0.00000000 [kJ/mol]

  Total HF                         -0.04543360 [mEh]      -0.02851001 [kcal/mol]      -0.11928590 [kJ/mol]
  Total SAPT0                      -0.04637695 [mEh]      -0.02910198 [kcal/mol]      -0.12176267 [kJ/mol]

  Special recipe for scaled SAPT0 (see Manual):
    Electrostatics sSAPT0          -0.04536822 [mEh]      -0.02846899 [kcal/mol]      -0.11911425 [kJ/mol]
    Exchange sSAPT0                 0.00000000 [mEh]       0.00000000 [kcal/mol]       0.00000000 [kJ/mol]
    Induction sSAPT0               -0.00006538 [mEh]      -0.00004103 [kcal/mol]      -0.00017165 [kJ/mol]
    Dispersion sSAPT0              -0.00094335 [mEh]      -0.00059196 [kcal/mol]      -0.00247677 [kJ/mol]
  Total sSAPT0                     -0.04637695 [mEh]      -0.02910198 [kcal/mol]      -0.12176267 [kJ/mol]
  --------------------------------------------------------------------------------------------------------

*** Psi4 exiting successfully. Buy a developer a beer!
