                               Psi4 1.4rc3

  ==> Input File <==

--------------------------------------------------------------------------
# PSI4 file produced by CrystaLattE

# Generated from:               pyrazole.xyz
# Psithon input for N-mer:      2mer-0+259
# Number of atoms per monomer:  [9, 9]
# Number of replicas:           1
# COM priority:                 1.695894426067e-05
# Minimum COM separations:      20.597
# Separation priority:          2.857132502076e-05
# Minimum monomer separations:  17.310
# Cutoff priority:              8.734549469378e-07
# Nuclear repulsion energy:     366.57986414033206

memory 7 GB

molecule Dimer_0_259 {
  N            6.27981210      -4.25303372       0.19313865
  N            6.06870777      -2.28125697       1.80544317
  H            3.66871156      -5.64628941      -1.96684001
  H            0.69034521      -2.37545694      -0.42864236
  H            3.35917442       0.17650601       3.09265017
  H            7.35266782      -1.99461311       2.90680702
  C            3.77952586      -1.21508453       1.76858172
  C            2.38242998      -2.55505538       0.04607681
  C            4.01771468      -4.38410490      -0.88761863
--
  N          -12.67871861      26.18878244     -17.61081436
  N          -12.55985635      28.22668947     -19.14798808
  H          -10.00555588      23.78787247     -16.89278400
  H           -7.11091932      26.23041121     -19.64792151
  H          -10.04734339      29.94346023     -21.55255782
  H          -14.02226457      29.03666653     -19.53375340
  C          -10.27701995      28.55686514     -20.17703693
  C           -8.79402751      26.62719292     -19.28711446
  C          -10.35533284      25.24202511     -17.69541651
units = au
no_com
no_reorient
}

set {
  e_convergence 10
  d_convergence 10
  scf_type df
  mp2_type df
  cc_type df
  freeze_core true
}

energy('sapt0/aug-cc-pvdz')

--------------------------------------------------------------------------

  //              Dimer HF             //
    Molecular point group: c1
  Charge       = 0
  Multiplicity = 1
  Basis Set: AUG-CC-PVDZ
    Blend: AUG-CC-PVDZ
  Basis Set: (AUG-CC-PVDZ AUX)
    Blend: AUG-CC-PVDZ-JKFIT
  @DF-RHF Final Energy:  -449.52478648711138
    Total Energy =                       -449.5247864871113279
  //            Monomer A HF           //
    Molecular point group: c1
  Multiplicity = 1
  Basis Set: AUG-CC-PVDZ
    Blend: AUG-CC-PVDZ
  Basis Set: (AUG-CC-PVDZ AUX)
    Blend: AUG-CC-PVDZ-JKFIT
  @DF-RHF Final Energy:  -224.76233952179371
    Total Energy =                       -224.7623395217937059
  //            Monomer B HF           //
    Molecular point group: c1

    Geometry (in Bohr), charge = 0, multiplicity = 1:

       Center              X                  Y                   Z               Mass
    ------------   -----------------  -----------------  -----------------  -----------------
      Gh(N)           6.279812100000    -4.253033720000     0.193138650000    14.003074004430
      Gh(N)           6.068707770000    -2.281256970000     1.805443170000    14.003074004430
      Gh(H)           3.668711560000    -5.646289410000    -1.966840010000     1.007825032230
      Gh(H)           0.690345210000    -2.375456940000    -0.428642360000     1.007825032230
      Gh(H)           3.359174420000     0.176506010000     3.092650170000     1.007825032230
      Gh(H)           7.352667820000    -1.994613110000     2.906807020000     1.007825032230
      Gh(C)           3.779525860000    -1.215084530000     1.768581720000    12.000000000000
      Gh(C)           2.382429980000    -2.555055380000     0.046076810000    12.000000000000
      Gh(C)           4.017714680000    -4.384104900000    -0.887618630000    12.000000000000
         N          -12.678718610000    26.188782440000   -17.610814360000    14.003074004430
         N          -12.559856350000    28.226689470000   -19.147988080000    14.003074004430
         H          -10.005555880000    23.787872470000   -16.892784000000     1.007825032230
         H           -7.110919320000    26.230411210000   -19.647921510000     1.007825032230
         H          -10.047343390000    29.943460230000   -21.552557820000     1.007825032230
         H          -14.022264570000    29.036666530000   -19.533753400000     1.007825032230
         C          -10.277019950000    28.556865140000   -20.177036930000    12.000000000000
         C           -8.794027510000    26.627192920000   -19.287114460000    12.000000000000
         C          -10.355332840000    25.242025110000   -17.695416510000    12.000000000000

  Charge       = 0
  Multiplicity = 1
  Basis Set: AUG-CC-PVDZ
    Blend: AUG-CC-PVDZ
  Basis Set: (AUG-CC-PVDZ AUX)
    Blend: AUG-CC-PVDZ-JKFIT

    Orbital Energies [Eh]
    ---------------------

    Doubly Occupied:

       1A    -15.636233     2A    -15.592291     3A    -11.279903
       4A    -11.237759     5A    -11.209884     6A     -1.387001
       7A     -1.121894     8A     -1.066928     9A     -0.872759
      10A     -0.837039    11A     -0.757272    12A     -0.645745
      13A     -0.620828    14A     -0.609177    15A     -0.583905
      16A     -0.461413    17A     -0.370715    18A     -0.346055

  @DF-RHF Final Energy:  -224.76243506150277

   => Energetics <=

    Nuclear Repulsion Energy =            166.6286027645732588
    One-Electron Energy =                -633.5084733093987097
    Two-Electron Energy =                 242.1174354833226801
    Total Energy =                       -224.7624350615027708

  Dipole Moment: [D]
     X:     0.7394      Y:     1.4336      Z:    -1.7871     Total:     2.4074

    SAPT Results
  --------------------------------------------------------------------------------------------------------
    Electrostatics                 -0.01196624 [mEh]      -0.00750893 [kcal/mol]      -0.03141736 [kJ/mol]
      Elst10,r                     -0.01196624 [mEh]      -0.00750893 [kcal/mol]      -0.03141736 [kJ/mol]

    Exchange                        0.00000000 [mEh]       0.00000000 [kcal/mol]       0.00000000 [kJ/mol]
      Exch10                        0.00000000 [mEh]       0.00000000 [kcal/mol]       0.00000000 [kJ/mol]
      Exch10(S^2)                   0.00000000 [mEh]       0.00000000 [kcal/mol]       0.00000000 [kJ/mol]

    Induction                       0.00006243 [mEh]       0.00003917 [kcal/mol]       0.00016390 [kJ/mol]
      Ind20,r                      -0.00001422 [mEh]      -0.00000892 [kcal/mol]      -0.00003733 [kJ/mol]
      Exch-Ind20,r                  0.00000000 [mEh]       0.00000000 [kcal/mol]       0.00000000 [kJ/mol]
      delta HF,r (2)                0.00007664 [mEh]       0.00004809 [kcal/mol]       0.00020123 [kJ/mol]

    Dispersion                     -0.00035395 [mEh]      -0.00022211 [kcal/mol]      -0.00092930 [kJ/mol]
      Disp20                       -0.00035395 [mEh]      -0.00022211 [kcal/mol]      -0.00092930 [kJ/mol]
      Exch-Disp20                   0.00000000 [mEh]       0.00000000 [kcal/mol]       0.00000000 [kJ/mol]
      Disp20 (SS)                  -0.00017698 [mEh]      -0.00011105 [kcal/mol]      -0.00046465 [kJ/mol]
      Disp20 (OS)                  -0.00017698 [mEh]      -0.00011105 [kcal/mol]      -0.00046465 [kJ/mol]
      Exch-Disp20 (SS)              0.00000000 [mEh]       0.00000000 [kcal/mol]       0.00000000 [kJ/mol]
      Exch-Disp20 (OS)              0.00000000 [mEh]       0.00000000 [kcal/mol]       0.00000000 [kJ/mol]

  Total HF                         -0.01190381 [mEh]      -0.00746976 [kcal/mol]      -0.03125346 [kJ/mol]
  Total SAPT0                      -0.01225777 [mEh]      -0.00769186 [kcal/mol]      -0.03218276 [kJ/mol]

  Special recipe for scaled SAPT0 (see Manual):
    Electrostatics sSAPT0          -0.01196624 [mEh]      -0.00750893 [kcal/mol]      -0.03141736 [kJ/mol]
    Exchange sSAPT0                 0.00000000 [mEh]       0.00000000 [kcal/mol]       0.00000000 [kJ/mol]
    Induction sSAPT0                0.00006243 [mEh]       0.00003917 [kcal/mol]       0.00016390 [kJ/mol]
    Dispersion sSAPT0              -0.00035395 [mEh]      -0.00022211 [kcal/mol]      -0.00092930 [kJ/mol]
  Total sSAPT0                     -0.01225777 [mEh]      -0.00769186 [kcal/mol]      -0.03218276 [kJ/mol]
  --------------------------------------------------------------------------------------------------------

*** Psi4 exiting successfully. Buy a developer a beer!
