                               Psi4 1.4rc3

  ==> Input File <==

--------------------------------------------------------------------------
# PSI4 file produced by CrystaLattE

# Generated from:               pyrazole.xyz
# Psithon input for N-mer:      2mer-0+221
# Number of atoms per monomer:  [9, 9]
# Number of replicas:           1
# COM priority:                 5.307746762461e-05
# Minimum COM separations:      14.081
# Separation priority:          1.133106691692e-04
# Minimum monomer separations:  10.936
# Cutoff priority:              5.483119853972e-06
# Nuclear repulsion energy:     381.9730606812966

memory 7 GB

molecule Dimer_0_221 {
  N            6.27981210      -4.25303372       0.19313865
  N            6.06870777      -2.28125697       1.80544317
  H            3.66871156      -5.64628941      -1.96684001
  H            0.69034521      -2.37545694      -0.42864236
  H            3.35917442       0.17650601       3.09265017
  H            7.35266782      -1.99461311       2.90680702
  C            3.77952586      -1.21508453       1.76858172
  C            2.38242998      -2.55505538       0.04607681
  C            4.01771468      -4.38410490      -0.88761863
--
  N           26.01342381      -9.49302627      11.25733365
  N           26.13228607      -7.45511923      12.79450737
  H           28.68658654     -11.89393623      10.53930329
  H           31.58122310      -9.45139749      13.29444080
  H           28.64479903      -5.73834848      15.19907711
  H           24.66987785      -6.64514217      13.18027269
  C           28.41512247      -7.12494356      13.82355622
  C           29.89811491      -9.05461578      12.93363375
  C           28.33680957     -10.43978359      11.34193580
units = au
no_com
no_reorient
}

set {
  e_convergence 10
  d_convergence 10
  scf_type df
  mp2_type df
  cc_type df
  freeze_core true
}

energy('sapt0/aug-cc-pvdz')

--------------------------------------------------------------------------

  //              Dimer HF             //
    Molecular point group: c1
  Charge       = 0
  Multiplicity = 1
  Basis Set: AUG-CC-PVDZ
    Blend: AUG-CC-PVDZ
  Basis Set: (AUG-CC-PVDZ AUX)
    Blend: AUG-CC-PVDZ-JKFIT
  @DF-RHF Final Energy:  -449.52467127990883
    Total Energy =                       -449.5246712799088300
  //            Monomer A HF           //
    Molecular point group: c1
  Multiplicity = 1
  Basis Set: AUG-CC-PVDZ
    Blend: AUG-CC-PVDZ
  Basis Set: (AUG-CC-PVDZ AUX)
    Blend: AUG-CC-PVDZ-JKFIT
  @DF-RHF Final Energy:  -224.76233954712413
    Total Energy =                       -224.7623395471241281
  //            Monomer B HF           //
    Molecular point group: c1

    Geometry (in Bohr), charge = 0, multiplicity = 1:

       Center              X                  Y                   Z               Mass
    ------------   -----------------  -----------------  -----------------  -----------------
      Gh(N)           6.279812100000    -4.253033720000     0.193138650000    14.003074004430
      Gh(N)           6.068707770000    -2.281256970000     1.805443170000    14.003074004430
      Gh(H)           3.668711560000    -5.646289410000    -1.966840010000     1.007825032230
      Gh(H)           0.690345210000    -2.375456940000    -0.428642360000     1.007825032230
      Gh(H)           3.359174420000     0.176506010000     3.092650170000     1.007825032230
      Gh(H)           7.352667820000    -1.994613110000     2.906807020000     1.007825032230
      Gh(C)           3.779525860000    -1.215084530000     1.768581720000    12.000000000000
      Gh(C)           2.382429980000    -2.555055380000     0.046076810000    12.000000000000
      Gh(C)           4.017714680000    -4.384104900000    -0.887618630000    12.000000000000
         N           26.013423810000    -9.493026270000    11.257333650000    14.003074004430
         N           26.132286070000    -7.455119230000    12.794507370000    14.003074004430
         H           28.686586540000   -11.893936230000    10.539303290000     1.007825032230
         H           31.581223100000    -9.451397490000    13.294440800000     1.007825032230
         H           28.644799030000    -5.738348480000    15.199077110000     1.007825032230
         H           24.669877850000    -6.645142170000    13.180272690000     1.007825032230
         C           28.415122470000    -7.124943560000    13.823556220000    12.000000000000
         C           29.898114910000    -9.054615780000    12.933633750000    12.000000000000
         C           28.336809570000   -10.439783590000    11.341935800000    12.000000000000

  Charge       = 0
  Multiplicity = 1
  Basis Set: AUG-CC-PVDZ
    Blend: AUG-CC-PVDZ
  Basis Set: (AUG-CC-PVDZ AUX)
    Blend: AUG-CC-PVDZ-JKFIT

    Orbital Energies [Eh]
    ---------------------

    Doubly Occupied:

       1A    -15.636233     2A    -15.592291     3A    -11.279903
       4A    -11.237759     5A    -11.209884     6A     -1.387001
       7A     -1.121894     8A     -1.066928     9A     -0.872759
      10A     -0.837039    11A     -0.757272    12A     -0.645745
      13A     -0.620828    14A     -0.609177    15A     -0.583905
      16A     -0.461413    17A     -0.370715    18A     -0.346055

  @DF-RHF Final Energy:  -224.76243508904730

   => Energetics <=

    Nuclear Repulsion Energy =            166.6286027697576060
    One-Electron Energy =                -633.5084734151549810
    Two-Electron Energy =                 242.1174355563500740
    Total Energy =                       -224.7624350890473011

  Dipole Moment: [D]
     X:     0.7394      Y:     1.4336      Z:     1.7871     Total:     2.4074

    SAPT Results
  --------------------------------------------------------------------------------------------------------
    Electrostatics                  0.10359930 [mEh]       0.06500954 [kcal/mol]       0.27199992 [kJ/mol]
      Elst10,r                      0.10359930 [mEh]       0.06500954 [kcal/mol]       0.27199992 [kJ/mol]

    Exchange                        0.00000000 [mEh]       0.00000000 [kcal/mol]       0.00000001 [kJ/mol]
      Exch10                        0.00000000 [mEh]       0.00000000 [kcal/mol]       0.00000001 [kJ/mol]
      Exch10(S^2)                   0.00000000 [mEh]       0.00000000 [kcal/mol]       0.00000001 [kJ/mol]

    Induction                      -0.00024304 [mEh]      -0.00015251 [kcal/mol]      -0.00063810 [kJ/mol]
      Ind20,r                      -0.00032648 [mEh]      -0.00020487 [kcal/mol]      -0.00085718 [kJ/mol]
      Exch-Ind20,r                  0.00000003 [mEh]       0.00000002 [kcal/mol]       0.00000008 [kJ/mol]
      delta HF,r (2)                0.00008342 [mEh]       0.00005234 [kcal/mol]       0.00021901 [kJ/mol]

    Dispersion                     -0.00361805 [mEh]      -0.00227036 [kcal/mol]      -0.00949919 [kJ/mol]
      Disp20                       -0.00361805 [mEh]      -0.00227036 [kcal/mol]      -0.00949920 [kJ/mol]
      Exch-Disp20                   0.00000000 [mEh]       0.00000000 [kcal/mol]       0.00000001 [kJ/mol]
      Disp20 (SS)                  -0.00180903 [mEh]      -0.00113518 [kcal/mol]      -0.00474960 [kJ/mol]
      Disp20 (OS)                  -0.00180903 [mEh]      -0.00113518 [kcal/mol]      -0.00474960 [kJ/mol]
      Exch-Disp20 (SS)              0.00000000 [mEh]       0.00000000 [kcal/mol]       0.00000001 [kJ/mol]
      Exch-Disp20 (OS)              0.00000000 [mEh]       0.00000000 [kcal/mol]       0.00000000 [kJ/mol]

  Total HF                          0.10335626 [mEh]       0.06485703 [kcal/mol]       0.27136183 [kJ/mol]
  Total SAPT0                       0.09973821 [mEh]       0.06258667 [kcal/mol]       0.26186264 [kJ/mol]

  Special recipe for scaled SAPT0 (see Manual):
    Electrostatics sSAPT0           0.10359930 [mEh]       0.06500954 [kcal/mol]       0.27199992 [kJ/mol]
    Exchange sSAPT0                 0.00000000 [mEh]       0.00000000 [kcal/mol]       0.00000001 [kJ/mol]
    Induction sSAPT0               -0.00024304 [mEh]      -0.00015251 [kcal/mol]      -0.00063810 [kJ/mol]
    Dispersion sSAPT0              -0.00361805 [mEh]      -0.00227036 [kcal/mol]      -0.00949919 [kJ/mol]
  Total sSAPT0                      0.09973821 [mEh]       0.06258667 [kcal/mol]       0.26186264 [kJ/mol]
  --------------------------------------------------------------------------------------------------------

*** Psi4 exiting successfully. Buy a developer a beer!
