                               Psi4 1.4rc3

  ==> Input File <==

--------------------------------------------------------------------------
# PSI4 file produced by CrystaLattE

# Generated from:               pyrazole.xyz
# Psithon input for N-mer:      2mer-0+384
# Number of atoms per monomer:  [9, 9]
# Number of replicas:           2
# COM priority:                 1.808564156306e-05
# Minimum COM separations:      20.160
# Separation priority:          2.455929266440e-05
# Minimum monomer separations:  18.205
# Cutoff priority:              7.138733005623e-07
# Nuclear repulsion energy:     367.20477375314726

memory 7 GB

molecule Dimer_0_384 {
  N            6.27981210      -4.25303372       0.19313865
  N            6.06870777      -2.28125697       1.80544317
  H            3.66871156      -5.64628941      -1.96684001
  H            0.69034521      -2.37545694      -0.42864236
  H            3.35917442       0.17650601       3.09265017
  H            7.35266782      -1.99461311       2.90680702
  C            3.77952586      -1.21508453       1.76858172
  C            2.38242998      -2.55505538       0.04607681
  C            4.01771468      -4.38410490      -0.88761863
--
  N          -16.93547335     -19.42731757      25.45116826
  N          -17.14657768     -21.39909431      23.83886374
  H          -19.54657389     -18.03406187      27.61114692
  H          -22.52494025     -21.30489434      26.07294927
  H          -19.85611103     -23.85685730      22.55165674
  H          -15.86261763     -21.68573818      22.73749989
  C          -19.43575960     -22.46526676      23.87572519
  C          -20.83285547     -21.12529590      25.59823010
  C          -19.19757077     -19.29624639      26.53192554
units = au
no_com
no_reorient
}

set {
  e_convergence 10
  d_convergence 10
  scf_type df
  mp2_type df
  cc_type df
  freeze_core true
}

energy('sapt0/aug-cc-pvdz')

--------------------------------------------------------------------------

  //              Dimer HF             //
    Molecular point group: c1
  Charge       = 0
  Multiplicity = 1
  Basis Set: AUG-CC-PVDZ
    Blend: AUG-CC-PVDZ
  Basis Set: (AUG-CC-PVDZ AUX)
    Blend: AUG-CC-PVDZ-JKFIT
  @DF-RHF Final Energy:  -449.52469489096802
    Total Energy =                       -449.5246948909680214
  //            Monomer A HF           //
    Molecular point group: c1
  Multiplicity = 1
  Basis Set: AUG-CC-PVDZ
    Blend: AUG-CC-PVDZ
  Basis Set: (AUG-CC-PVDZ AUX)
    Blend: AUG-CC-PVDZ-JKFIT
  @DF-RHF Final Energy:  -224.76233952081040
    Total Energy =                       -224.7623395208104000
  //            Monomer B HF           //
    Molecular point group: c1

    Geometry (in Bohr), charge = 0, multiplicity = 1:

       Center              X                  Y                   Z               Mass
    ------------   -----------------  -----------------  -----------------  -----------------
      Gh(N)           6.279812100000    -4.253033720000     0.193138650000    14.003074004430
      Gh(N)           6.068707770000    -2.281256970000     1.805443170000    14.003074004430
      Gh(H)           3.668711560000    -5.646289410000    -1.966840010000     1.007825032230
      Gh(H)           0.690345210000    -2.375456940000    -0.428642360000     1.007825032230
      Gh(H)           3.359174420000     0.176506010000     3.092650170000     1.007825032230
      Gh(H)           7.352667820000    -1.994613110000     2.906807020000     1.007825032230
      Gh(C)           3.779525860000    -1.215084530000     1.768581720000    12.000000000000
      Gh(C)           2.382429980000    -2.555055380000     0.046076810000    12.000000000000
      Gh(C)           4.017714680000    -4.384104900000    -0.887618630000    12.000000000000
         N          -16.935473350000   -19.427317570000    25.451168260000    14.003074004430
         N          -17.146577680000   -21.399094310000    23.838863740000    14.003074004430
         H          -19.546573890000   -18.034061870000    27.611146920000     1.007825032230
         H          -22.524940250000   -21.304894340000    26.072949270000     1.007825032230
         H          -19.856111030000   -23.856857300000    22.551656740000     1.007825032230
         H          -15.862617630000   -21.685738180000    22.737499890000     1.007825032230
         C          -19.435759600000   -22.465266760000    23.875725190000    12.000000000000
         C          -20.832855470000   -21.125295900000    25.598230100000    12.000000000000
         C          -19.197570770000   -19.296246390000    26.531925540000    12.000000000000

  Charge       = 0
  Multiplicity = 1
  Basis Set: AUG-CC-PVDZ
    Blend: AUG-CC-PVDZ
  Basis Set: (AUG-CC-PVDZ AUX)
    Blend: AUG-CC-PVDZ-JKFIT

    Orbital Energies [Eh]
    ---------------------

    Doubly Occupied:

       1A    -15.636223     2A    -15.592313     3A    -11.279894
       4A    -11.237784     5A    -11.209891     6A     -1.386922
       7A     -1.121901     8A     -1.066898     9A     -0.872768
      10A     -0.837061    11A     -0.757292    12A     -0.645746
      13A     -0.620834    14A     -0.609140    15A     -0.583920
      16A     -0.461404    17A     -0.370721    18A     -0.346048

  @DF-RHF Final Energy:  -224.76233952476781

   => Energetics <=

    Nuclear Repulsion Energy =            166.6240564128250981
    One-Electron Energy =                -633.4992733252621520
    Two-Electron Energy =                 242.1128773876692435
    Total Energy =                       -224.7623395247678104

  Dipole Moment: [D]
     X:    -1.0235      Y:    -1.6055      Z:    -1.4733     Total:     2.4075

    SAPT Results
  --------------------------------------------------------------------------------------------------------
    Electrostatics                 -0.01587740 [mEh]      -0.00996322 [kcal/mol]      -0.04168610 [kJ/mol]
      Elst10,r                     -0.01587740 [mEh]      -0.00996322 [kcal/mol]      -0.04168610 [kJ/mol]

    Exchange                        0.00000000 [mEh]       0.00000000 [kcal/mol]       0.00000000 [kJ/mol]
      Exch10                        0.00000000 [mEh]       0.00000000 [kcal/mol]       0.00000000 [kJ/mol]
      Exch10(S^2)                   0.00000000 [mEh]       0.00000000 [kcal/mol]       0.00000000 [kJ/mol]

    Induction                       0.00003201 [mEh]       0.00002008 [kcal/mol]       0.00008403 [kJ/mol]
      Ind20,r                      -0.00001796 [mEh]      -0.00001127 [kcal/mol]      -0.00004716 [kJ/mol]
      Exch-Ind20,r                  0.00000000 [mEh]       0.00000000 [kcal/mol]       0.00000000 [kJ/mol]
      delta HF,r (2)                0.00004997 [mEh]       0.00003136 [kcal/mol]       0.00013119 [kJ/mol]

    Dispersion                     -0.00033853 [mEh]      -0.00021243 [kcal/mol]      -0.00088881 [kJ/mol]
      Disp20                       -0.00033853 [mEh]      -0.00021243 [kcal/mol]      -0.00088881 [kJ/mol]
      Exch-Disp20                   0.00000000 [mEh]       0.00000000 [kcal/mol]       0.00000000 [kJ/mol]
      Disp20 (SS)                  -0.00016927 [mEh]      -0.00010622 [kcal/mol]      -0.00044441 [kJ/mol]
      Disp20 (OS)                  -0.00016927 [mEh]      -0.00010622 [kcal/mol]      -0.00044441 [kJ/mol]
      Exch-Disp20 (SS)              0.00000000 [mEh]       0.00000000 [kcal/mol]       0.00000000 [kJ/mol]
      Exch-Disp20 (OS)              0.00000000 [mEh]       0.00000000 [kcal/mol]       0.00000000 [kJ/mol]

  Total HF                         -0.01584539 [mEh]      -0.00994313 [kcal/mol]      -0.04160207 [kJ/mol]
  Total SAPT0                      -0.01618392 [mEh]      -0.01015556 [kcal/mol]      -0.04249088 [kJ/mol]

  Special recipe for scaled SAPT0 (see Manual):
    Electrostatics sSAPT0          -0.01587740 [mEh]      -0.00996322 [kcal/mol]      -0.04168610 [kJ/mol]
    Exchange sSAPT0                 0.00000000 [mEh]       0.00000000 [kcal/mol]       0.00000000 [kJ/mol]
    Induction sSAPT0                0.00003201 [mEh]       0.00002008 [kcal/mol]       0.00008403 [kJ/mol]
    Dispersion sSAPT0              -0.00033853 [mEh]      -0.00021243 [kcal/mol]      -0.00088881 [kJ/mol]
  Total sSAPT0                     -0.01618392 [mEh]      -0.01015556 [kcal/mol]      -0.04249088 [kJ/mol]
  --------------------------------------------------------------------------------------------------------

*** Psi4 exiting successfully. Buy a developer a beer!
