                               Psi4 1.4rc3

  ==> Input File <==

--------------------------------------------------------------------------
# PSI4 file produced by CrystaLattE

# Generated from:               pyrazole.xyz
# Psithon input for N-mer:      2mer-0+375
# Number of atoms per monomer:  [9, 9]
# Number of replicas:           1
# COM priority:                 1.518999545035e-05
# Minimum COM separations:      21.367
# Separation priority:          2.388598500293e-05
# Minimum monomer separations:  18.375
# Cutoff priority:              6.878982538664e-07
# Nuclear repulsion energy:     365.42183595504514

memory 7 GB

molecule Dimer_0_375 {
  N            6.27981210      -4.25303372       0.19313865
  N            6.06870777      -2.28125697       1.80544317
  H            3.66871156      -5.64628941      -1.96684001
  H            0.69034521      -2.37545694      -0.42864236
  H            3.35917442       0.17650601       3.09265017
  H            7.35266782      -1.99461311       2.90680702
  C            3.77952586      -1.21508453       1.76858172
  C            2.38242998      -2.55505538       0.04607681
  C            4.01771468      -4.38410490      -0.88761863
--
  N          -20.41714710      -2.29338878     -33.53956902
  N          -20.29828483      -4.33129582     -32.00239530
  H          -17.74398436       0.10752118     -34.25759937
  H          -14.84934780      -2.33501756     -31.50246187
  H          -17.78577187      -6.04806657     -29.59782556
  H          -21.76069305      -5.14127288     -31.61662997
  C          -18.01544843      -4.66147149     -30.97334645
  C          -16.53245600      -2.73179927     -31.86326892
  C          -18.09376133      -1.34663146     -33.45496687
units = au
no_com
no_reorient
}

set {
  e_convergence 10
  d_convergence 10
  scf_type df
  mp2_type df
  cc_type df
  freeze_core true
}

energy('sapt0/aug-cc-pvdz')

--------------------------------------------------------------------------

  //              Dimer HF             //
    Molecular point group: c1
  Charge       = 0
  Multiplicity = 1
  Basis Set: AUG-CC-PVDZ
    Blend: AUG-CC-PVDZ
  Basis Set: (AUG-CC-PVDZ AUX)
    Blend: AUG-CC-PVDZ-JKFIT
  @DF-RHF Final Energy:  -449.52477848613739
    Total Energy =                       -449.5247784861373930
  //            Monomer A HF           //
    Molecular point group: c1
  Multiplicity = 1
  Basis Set: AUG-CC-PVDZ
    Blend: AUG-CC-PVDZ
  Basis Set: (AUG-CC-PVDZ AUX)
    Blend: AUG-CC-PVDZ-JKFIT
  @DF-RHF Final Energy:  -224.76233952165322
    Total Energy =                       -224.7623395216532174
  //            Monomer B HF           //
    Molecular point group: c1

    Geometry (in Bohr), charge = 0, multiplicity = 1:

       Center              X                  Y                   Z               Mass
    ------------   -----------------  -----------------  -----------------  -----------------
      Gh(N)           6.279812100000    -4.253033720000     0.193138650000    14.003074004430
      Gh(N)           6.068707770000    -2.281256970000     1.805443170000    14.003074004430
      Gh(H)           3.668711560000    -5.646289410000    -1.966840010000     1.007825032230
      Gh(H)           0.690345210000    -2.375456940000    -0.428642360000     1.007825032230
      Gh(H)           3.359174420000     0.176506010000     3.092650170000     1.007825032230
      Gh(H)           7.352667820000    -1.994613110000     2.906807020000     1.007825032230
      Gh(C)           3.779525860000    -1.215084530000     1.768581720000    12.000000000000
      Gh(C)           2.382429980000    -2.555055380000     0.046076810000    12.000000000000
      Gh(C)           4.017714680000    -4.384104900000    -0.887618630000    12.000000000000
         N          -20.417147100000    -2.293388780000   -33.539569020000    14.003074004430
         N          -20.298284830000    -4.331295820000   -32.002395300000    14.003074004430
         H          -17.743984360000     0.107521180000   -34.257599370000     1.007825032230
         H          -14.849347800000    -2.335017560000   -31.502461870000     1.007825032230
         H          -17.785771870000    -6.048066570000   -29.597825560000     1.007825032230
         H          -21.760693050000    -5.141272880000   -31.616629970000     1.007825032230
         C          -18.015448430000    -4.661471490000   -30.973346450000    12.000000000000
         C          -16.532456000000    -2.731799270000   -31.863268920000    12.000000000000
         C          -18.093761330000    -1.346631460000   -33.454966870000    12.000000000000

  Charge       = 0
  Multiplicity = 1
  Basis Set: AUG-CC-PVDZ
    Blend: AUG-CC-PVDZ
  Basis Set: (AUG-CC-PVDZ AUX)
    Blend: AUG-CC-PVDZ-JKFIT

    Orbital Energies [Eh]
    ---------------------

    Doubly Occupied:

       1A    -15.636233     2A    -15.592291     3A    -11.279903
       4A    -11.237759     5A    -11.209884     6A     -1.387001
       7A     -1.121894     8A     -1.066928     9A     -0.872759
      10A     -0.837039    11A     -0.757272    12A     -0.645745
      13A     -0.620828    14A     -0.609177    15A     -0.583905
      16A     -0.461413    17A     -0.370715    18A     -0.346055

  @DF-RHF Final Energy:  -224.76243506069599

   => Energetics <=

    Nuclear Repulsion Energy =            166.6286027647857964
    One-Electron Energy =                -633.5084733164682120
    Two-Electron Energy =                 242.1174354909864235
    Total Energy =                       -224.7624350606959922

  Dipole Moment: [D]
     X:     0.7394      Y:    -1.4336      Z:     1.7871     Total:     2.4074

    SAPT Results
  --------------------------------------------------------------------------------------------------------
    Electrostatics                 -0.00396158 [mEh]      -0.00248593 [kcal/mol]      -0.01040114 [kJ/mol]
      Elst10,r                     -0.00396158 [mEh]      -0.00248593 [kcal/mol]      -0.01040114 [kJ/mol]

    Exchange                        0.00000000 [mEh]       0.00000000 [kcal/mol]       0.00000000 [kJ/mol]
      Exch10                        0.00000000 [mEh]       0.00000000 [kcal/mol]       0.00000000 [kJ/mol]
      Exch10(S^2)                   0.00000000 [mEh]       0.00000000 [kcal/mol]       0.00000000 [kJ/mol]

    Induction                       0.00005780 [mEh]       0.00003627 [kcal/mol]       0.00015174 [kJ/mol]
      Ind20,r                      -0.00001449 [mEh]      -0.00000910 [kcal/mol]      -0.00003806 [kJ/mol]
      Exch-Ind20,r                  0.00000000 [mEh]       0.00000000 [kcal/mol]       0.00000000 [kJ/mol]
      delta HF,r (2)                0.00007229 [mEh]       0.00004536 [kcal/mol]       0.00018980 [kJ/mol]

    Dispersion                     -0.00029323 [mEh]      -0.00018400 [kcal/mol]      -0.00076987 [kJ/mol]
      Disp20                       -0.00029323 [mEh]      -0.00018400 [kcal/mol]      -0.00076987 [kJ/mol]
      Exch-Disp20                   0.00000000 [mEh]       0.00000000 [kcal/mol]       0.00000000 [kJ/mol]
      Disp20 (SS)                  -0.00014661 [mEh]      -0.00009200 [kcal/mol]      -0.00038493 [kJ/mol]
      Disp20 (OS)                  -0.00014661 [mEh]      -0.00009200 [kcal/mol]      -0.00038493 [kJ/mol]
      Exch-Disp20 (SS)              0.00000000 [mEh]       0.00000000 [kcal/mol]       0.00000000 [kJ/mol]
      Exch-Disp20 (OS)              0.00000000 [mEh]       0.00000000 [kcal/mol]       0.00000000 [kJ/mol]

  Total HF                         -0.00390379 [mEh]      -0.00244966 [kcal/mol]      -0.01024939 [kJ/mol]
  Total SAPT0                      -0.00419702 [mEh]      -0.00263367 [kcal/mol]      -0.01101926 [kJ/mol]

  Special recipe for scaled SAPT0 (see Manual):
    Electrostatics sSAPT0          -0.00396158 [mEh]      -0.00248593 [kcal/mol]      -0.01040114 [kJ/mol]
    Exchange sSAPT0                 0.00000000 [mEh]       0.00000000 [kcal/mol]       0.00000000 [kJ/mol]
    Induction sSAPT0                0.00005780 [mEh]       0.00003627 [kcal/mol]       0.00015174 [kJ/mol]
    Dispersion sSAPT0              -0.00029323 [mEh]      -0.00018400 [kcal/mol]      -0.00076987 [kJ/mol]
  Total sSAPT0                     -0.00419702 [mEh]      -0.00263367 [kcal/mol]      -0.01101926 [kJ/mol]
  --------------------------------------------------------------------------------------------------------

*** Psi4 exiting successfully. Buy a developer a beer!
