                               Psi4 1.4rc3

  ==> Input File <==

--------------------------------------------------------------------------
# PSI4 file produced by CrystaLattE

# Generated from:               pyrazole.xyz
# Psithon input for N-mer:      2mer-0+286
# Number of atoms per monomer:  [9, 9]
# Number of replicas:           1
# COM priority:                 2.975708684886e-05
# Minimum COM separations:      17.077
# Separation priority:          3.678990263405e-05
# Minimum monomer separations:  15.911
# Cutoff priority:              1.223596383236e-06
# Nuclear repulsion energy:     373.2113919677472

memory 7 GB

molecule Dimer_0_286 {
  N            6.27981210      -4.25303372       0.19313865
  N            6.06870777      -2.28125697       1.80544317
  H            3.66871156      -5.64628941      -1.96684001
  H            0.69034521      -2.37545694      -0.42864236
  H            3.35917442       0.17650601       3.09265017
  H            7.35266782      -1.99461311       2.90680702
  C            3.77952586      -1.21508453       1.76858172
  C            2.38242998      -2.55505538       0.04607681
  C            4.01771468      -4.38410490      -0.88761863
--
  N           18.27499532       9.60054745     -24.01037188
  N           18.39385758       7.56264041     -25.54754560
  H           20.94815806      12.00145742     -23.29234153
  H           23.84279462       9.55891867     -26.04747903
  H           20.90637054       5.84586966     -27.95211534
  H           16.93144937       6.75266336     -25.93331093
  C           20.67669399       7.23246474     -26.57659445
  C           22.15968642       9.16213696     -25.68667198
  C           20.59838109      10.54730477     -24.09497403
units = au
no_com
no_reorient
}

set {
  e_convergence 10
  d_convergence 10
  scf_type df
  mp2_type df
  cc_type df
  freeze_core true
}

energy('sapt0/aug-cc-pvdz')

--------------------------------------------------------------------------

  //              Dimer HF             //
    Molecular point group: c1
  Charge       = 0
  Multiplicity = 1
  Basis Set: AUG-CC-PVDZ
    Blend: AUG-CC-PVDZ
  Basis Set: (AUG-CC-PVDZ AUX)
    Blend: AUG-CC-PVDZ-JKFIT
  @DF-RHF Final Energy:  -449.52477011590599
    Total Energy =                       -449.5247701159059943
  //            Monomer A HF           //
    Molecular point group: c1
  Multiplicity = 1
  Basis Set: AUG-CC-PVDZ
    Blend: AUG-CC-PVDZ
  Basis Set: (AUG-CC-PVDZ AUX)
    Blend: AUG-CC-PVDZ-JKFIT
  @DF-RHF Final Energy:  -224.76233952385599
    Total Energy =                       -224.7623395238559851
  //            Monomer B HF           //
    Molecular point group: c1

    Geometry (in Bohr), charge = 0, multiplicity = 1:

       Center              X                  Y                   Z               Mass
    ------------   -----------------  -----------------  -----------------  -----------------
      Gh(N)           6.279812100000    -4.253033720000     0.193138650000    14.003074004430
      Gh(N)           6.068707770000    -2.281256970000     1.805443170000    14.003074004430
      Gh(H)           3.668711560000    -5.646289410000    -1.966840010000     1.007825032230
      Gh(H)           0.690345210000    -2.375456940000    -0.428642360000     1.007825032230
      Gh(H)           3.359174420000     0.176506010000     3.092650170000     1.007825032230
      Gh(H)           7.352667820000    -1.994613110000     2.906807020000     1.007825032230
      Gh(C)           3.779525860000    -1.215084530000     1.768581720000    12.000000000000
      Gh(C)           2.382429980000    -2.555055380000     0.046076810000    12.000000000000
      Gh(C)           4.017714680000    -4.384104900000    -0.887618630000    12.000000000000
         N           18.274995320000     9.600547450000   -24.010371880000    14.003074004430
         N           18.393857580000     7.562640410000   -25.547545600000    14.003074004430
         H           20.948158060000    12.001457420000   -23.292341530000     1.007825032230
         H           23.842794620000     9.558918670000   -26.047479030000     1.007825032230
         H           20.906370540000     5.845869660000   -27.952115340000     1.007825032230
         H           16.931449370000     6.752663360000   -25.933310930000     1.007825032230
         C           20.676693990000     7.232464740000   -26.576594450000    12.000000000000
         C           22.159686420000     9.162136960000   -25.686671980000    12.000000000000
         C           20.598381090000    10.547304770000   -24.094974030000    12.000000000000

  Charge       = 0
  Multiplicity = 1
  Basis Set: AUG-CC-PVDZ
    Blend: AUG-CC-PVDZ
  Basis Set: (AUG-CC-PVDZ AUX)
    Blend: AUG-CC-PVDZ-JKFIT

    Orbital Energies [Eh]
    ---------------------

    Doubly Occupied:

       1A    -15.636233     2A    -15.592291     3A    -11.279903
       4A    -11.237759     5A    -11.209884     6A     -1.387001
       7A     -1.121894     8A     -1.066928     9A     -0.872759
      10A     -0.837039    11A     -0.757272    12A     -0.645745
      13A     -0.620828    14A     -0.609177    15A     -0.583905
      16A     -0.461413    17A     -0.370715    18A     -0.346055

  @DF-RHF Final Energy:  -224.76243506371358

   => Energetics <=

    Nuclear Repulsion Energy =            166.6286026803319373
    One-Electron Energy =                -633.5084731545548493
    Two-Electron Energy =                 242.1174354105093300
    Total Energy =                       -224.7624350637135819

  Dipole Moment: [D]
     X:     0.7394      Y:    -1.4336      Z:    -1.7871     Total:     2.4074

    SAPT Results
  --------------------------------------------------------------------------------------------------------
    Electrostatics                  0.00446896 [mEh]       0.00280432 [kcal/mol]       0.01173326 [kJ/mol]
      Elst10,r                      0.00446896 [mEh]       0.00280432 [kcal/mol]       0.01173326 [kJ/mol]

    Exchange                        0.00000000 [mEh]       0.00000000 [kcal/mol]       0.00000000 [kJ/mol]
      Exch10                        0.00000000 [mEh]       0.00000000 [kcal/mol]       0.00000000 [kJ/mol]
      Exch10(S^2)                   0.00000000 [mEh]       0.00000000 [kcal/mol]       0.00000000 [kJ/mol]

    Induction                       0.00000270 [mEh]       0.00000169 [kcal/mol]       0.00000709 [kJ/mol]
      Ind20,r                      -0.00007023 [mEh]      -0.00004407 [kcal/mol]      -0.00018438 [kJ/mol]
      Exch-Ind20,r                  0.00000000 [mEh]       0.00000000 [kcal/mol]       0.00000000 [kJ/mol]
      delta HF,r (2)                0.00007293 [mEh]       0.00004576 [kcal/mol]       0.00019147 [kJ/mol]

    Dispersion                     -0.00088244 [mEh]      -0.00055374 [kcal/mol]      -0.00231684 [kJ/mol]
      Disp20                       -0.00088244 [mEh]      -0.00055374 [kcal/mol]      -0.00231684 [kJ/mol]
      Exch-Disp20                   0.00000000 [mEh]       0.00000000 [kcal/mol]       0.00000000 [kJ/mol]
      Disp20 (SS)                  -0.00044122 [mEh]      -0.00027687 [kcal/mol]      -0.00115842 [kJ/mol]
      Disp20 (OS)                  -0.00044122 [mEh]      -0.00027687 [kcal/mol]      -0.00115842 [kJ/mol]
      Exch-Disp20 (SS)              0.00000000 [mEh]       0.00000000 [kcal/mol]       0.00000000 [kJ/mol]
      Exch-Disp20 (OS)              0.00000000 [mEh]       0.00000000 [kcal/mol]       0.00000000 [kJ/mol]

  Total HF                          0.00447166 [mEh]       0.00280601 [kcal/mol]       0.01174035 [kJ/mol]
  Total SAPT0                       0.00358923 [mEh]       0.00225227 [kcal/mol]       0.00942351 [kJ/mol]

  Special recipe for scaled SAPT0 (see Manual):
    Electrostatics sSAPT0           0.00446896 [mEh]       0.00280432 [kcal/mol]       0.01173326 [kJ/mol]
    Exchange sSAPT0                 0.00000000 [mEh]       0.00000000 [kcal/mol]       0.00000000 [kJ/mol]
    Induction sSAPT0                0.00000270 [mEh]       0.00000169 [kcal/mol]       0.00000709 [kJ/mol]
    Dispersion sSAPT0              -0.00088244 [mEh]      -0.00055374 [kcal/mol]      -0.00231684 [kJ/mol]
  Total sSAPT0                      0.00358923 [mEh]       0.00225227 [kcal/mol]       0.00942351 [kJ/mol]
  --------------------------------------------------------------------------------------------------------

*** Psi4 exiting successfully. Buy a developer a beer!
