                               Psi4 1.4rc3

  ==> Input File <==

--------------------------------------------------------------------------
# PSI4 file produced by CrystaLattE

# Generated from:               pyrazole.xyz
# Psithon input for N-mer:      2mer-0+307
# Number of atoms per monomer:  [9, 9]
# Number of replicas:           2
# COM priority:                 1.989735763726e-05
# Minimum COM separations:      19.529
# Separation priority:          2.886176800333e-05
# Minimum monomer separations:  17.251
# Cutoff priority:              8.853138162517e-07
# Nuclear repulsion energy:     368.33878204846843

memory 7 GB

molecule Dimer_0_307 {
  N            6.27981210      -4.25303372       0.19313865
  N            6.06870777      -2.28125697       1.80544317
  H            3.66871156      -5.64628941      -1.96684001
  H            0.69034521      -2.37545694      -0.42864236
  H            3.35917442       0.17650601       3.09265017
  H            7.35266782      -1.99461311       2.90680702
  C            3.77952586      -1.21508453       1.76858172
  C            2.38242998      -2.55505538       0.04607681
  C            4.01771468      -4.38410490      -0.88761863
--
  N          -24.67390184      -7.53338133      19.39181122
  N          -24.88500617      -9.50515808      21.00411574
  H          -27.28500238      -6.14012564      17.23183256
  H          -30.26336873      -9.41095811      18.77003021
  H          -27.59453951     -11.96292106      22.29132274
  H          -23.60104611      -9.79180194      22.10547959
  C          -27.17418808     -10.57133052      20.96725429
  C          -28.57128396      -9.23135967      19.24474939
  C          -26.93599925      -7.40231015      18.31105394
units = au
no_com
no_reorient
}

set {
  e_convergence 10
  d_convergence 10
  scf_type df
  mp2_type df
  cc_type df
  freeze_core true
}

energy('sapt0/aug-cc-pvdz')

--------------------------------------------------------------------------

  //              Dimer HF             //
    Molecular point group: c1
  Charge       = 0
  Multiplicity = 1
  Basis Set: AUG-CC-PVDZ
    Blend: AUG-CC-PVDZ
  Basis Set: (AUG-CC-PVDZ AUX)
    Blend: AUG-CC-PVDZ-JKFIT
  @DF-RHF Final Energy:  -449.52469937024858
    Total Energy =                       -449.5246993702486407
  //            Monomer A HF           //
    Molecular point group: c1
  Multiplicity = 1
  Basis Set: AUG-CC-PVDZ
    Blend: AUG-CC-PVDZ
  Basis Set: (AUG-CC-PVDZ AUX)
    Blend: AUG-CC-PVDZ-JKFIT
  @DF-RHF Final Energy:  -224.76233952091133
    Total Energy =                       -224.7623395209113255
  //            Monomer B HF           //
    Molecular point group: c1

    Geometry (in Bohr), charge = 0, multiplicity = 1:

       Center              X                  Y                   Z               Mass
    ------------   -----------------  -----------------  -----------------  -----------------
      Gh(N)           6.279812100000    -4.253033720000     0.193138650000    14.003074004430
      Gh(N)           6.068707770000    -2.281256970000     1.805443170000    14.003074004430
      Gh(H)           3.668711560000    -5.646289410000    -1.966840010000     1.007825032230
      Gh(H)           0.690345210000    -2.375456940000    -0.428642360000     1.007825032230
      Gh(H)           3.359174420000     0.176506010000     3.092650170000     1.007825032230
      Gh(H)           7.352667820000    -1.994613110000     2.906807020000     1.007825032230
      Gh(C)           3.779525860000    -1.215084530000     1.768581720000    12.000000000000
      Gh(C)           2.382429980000    -2.555055380000     0.046076810000    12.000000000000
      Gh(C)           4.017714680000    -4.384104900000    -0.887618630000    12.000000000000
         N          -24.673901840000    -7.533381330000    19.391811220000    14.003074004430
         N          -24.885006170000    -9.505158080000    21.004115740000    14.003074004430
         H          -27.285002380000    -6.140125640000    17.231832560000     1.007825032230
         H          -30.263368730000    -9.410958110000    18.770030210000     1.007825032230
         H          -27.594539510000   -11.962921060000    22.291322740000     1.007825032230
         H          -23.601046110000    -9.791801940000    22.105479590000     1.007825032230
         C          -27.174188080000   -10.571330520000    20.967254290000    12.000000000000
         C          -28.571283960000    -9.231359670000    19.244749390000    12.000000000000
         C          -26.935999250000    -7.402310150000    18.311053940000    12.000000000000

  Charge       = 0
  Multiplicity = 1
  Basis Set: AUG-CC-PVDZ
    Blend: AUG-CC-PVDZ
  Basis Set: (AUG-CC-PVDZ AUX)
    Blend: AUG-CC-PVDZ-JKFIT

    Orbital Energies [Eh]
    ---------------------

    Doubly Occupied:

       1A    -15.636223     2A    -15.592313     3A    -11.279894
       4A    -11.237784     5A    -11.209891     6A     -1.386922
       7A     -1.121901     8A     -1.066898     9A     -0.872768
      10A     -0.837061    11A     -0.757292    12A     -0.645746
      13A     -0.620834    14A     -0.609140    15A     -0.583920
      16A     -0.461404    17A     -0.370721    18A     -0.346048

  @DF-RHF Final Energy:  -224.76233952435285

   => Energetics <=

    Nuclear Repulsion Energy =            166.6240564890044595
    One-Electron Energy =                -633.4992734759116502
    Two-Electron Energy =                 242.1128774625543087
    Total Energy =                       -224.7623395243528535

  Dipole Moment: [D]
     X:    -1.0235      Y:    -1.6055      Z:     1.4733     Total:     2.4075

    SAPT Results
  --------------------------------------------------------------------------------------------------------
    Electrostatics                 -0.02035821 [mEh]      -0.01277497 [kcal/mol]      -0.05345048 [kJ/mol]
      Elst10,r                     -0.02035821 [mEh]      -0.01277497 [kcal/mol]      -0.05345048 [kJ/mol]

    Exchange                        0.00000000 [mEh]       0.00000000 [kcal/mol]       0.00000000 [kJ/mol]
      Exch10                        0.00000000 [mEh]       0.00000000 [kcal/mol]       0.00000000 [kJ/mol]
      Exch10(S^2)                   0.00000000 [mEh]       0.00000000 [kcal/mol]       0.00000000 [kJ/mol]

    Induction                       0.00003323 [mEh]       0.00002085 [kcal/mol]       0.00008724 [kJ/mol]
      Ind20,r                      -0.00004426 [mEh]      -0.00002777 [kcal/mol]      -0.00011621 [kJ/mol]
      Exch-Ind20,r                  0.00000000 [mEh]       0.00000000 [kcal/mol]       0.00000000 [kJ/mol]
      delta HF,r (2)                0.00007749 [mEh]       0.00004863 [kcal/mol]       0.00020345 [kJ/mol]

    Dispersion                     -0.00044973 [mEh]      -0.00028221 [kcal/mol]      -0.00118076 [kJ/mol]
      Disp20                       -0.00044973 [mEh]      -0.00028221 [kcal/mol]      -0.00118076 [kJ/mol]
      Exch-Disp20                   0.00000000 [mEh]       0.00000000 [kcal/mol]       0.00000000 [kJ/mol]
      Disp20 (SS)                  -0.00022486 [mEh]      -0.00014110 [kcal/mol]      -0.00059038 [kJ/mol]
      Disp20 (OS)                  -0.00022486 [mEh]      -0.00014110 [kcal/mol]      -0.00059038 [kJ/mol]
      Exch-Disp20 (SS)              0.00000000 [mEh]       0.00000000 [kcal/mol]       0.00000000 [kJ/mol]
      Exch-Disp20 (OS)              0.00000000 [mEh]       0.00000000 [kcal/mol]       0.00000000 [kJ/mol]

  Total HF                         -0.02032498 [mEh]      -0.01275412 [kcal/mol]      -0.05336324 [kJ/mol]
  Total SAPT0                      -0.02077471 [mEh]      -0.01303633 [kcal/mol]      -0.05454400 [kJ/mol]

  Special recipe for scaled SAPT0 (see Manual):
    Electrostatics sSAPT0          -0.02035821 [mEh]      -0.01277497 [kcal/mol]      -0.05345048 [kJ/mol]
    Exchange sSAPT0                 0.00000000 [mEh]       0.00000000 [kcal/mol]       0.00000000 [kJ/mol]
    Induction sSAPT0                0.00003323 [mEh]       0.00002085 [kcal/mol]       0.00008724 [kJ/mol]
    Dispersion sSAPT0              -0.00044973 [mEh]      -0.00028221 [kcal/mol]      -0.00118076 [kJ/mol]
  Total sSAPT0                     -0.02077471 [mEh]      -0.01303633 [kcal/mol]      -0.05454400 [kJ/mol]
  --------------------------------------------------------------------------------------------------------

*** Psi4 exiting successfully. Buy a developer a beer!
