                               Psi4 1.4rc3

  ==> Input File <==

--------------------------------------------------------------------------
# PSI4 file produced by CrystaLattE

# Generated from:               pyrazole.xyz
# Psithon input for N-mer:      2mer-0+418
# Number of atoms per monomer:  [9, 9]
# Number of replicas:           1
# COM priority:                 1.272257111702e-05
# Minimum COM separations:      22.668
# Separation priority:          1.978662336115e-05
# Minimum monomer separations:  19.565
# Cutoff priority:              5.351747104014e-07
# Nuclear repulsion energy:     363.55362212024295

memory 7 GB

molecule Dimer_0_418 {
  N            6.27981210      -4.25303372       0.19313865
  N            6.06870777      -2.28125697       1.80544317
  H            3.66871156      -5.64628941      -1.96684001
  H            0.69034521      -2.37545694      -0.42864236
  H            3.35917442       0.17650601       3.09265017
  H            7.35266782      -1.99461311       2.90680702
  C            3.77952586      -1.21508453       1.76858172
  C            2.38242998      -2.55505538       0.04607681
  C            4.01771468      -4.38410490      -0.88761863
--
  N          -35.89400406      -2.29338878      17.65689117
  N          -35.77514180      -4.33129582      19.19406489
  H          -33.22084133       0.10752118      16.93886082
  H          -30.32620477      -2.33501756      19.69399832
  H          -33.26262884      -6.04806657      21.59863463
  H          -37.23755002      -5.14127288      19.57983022
  C          -33.49230540      -4.66147149      20.22311374
  C          -32.00931296      -2.73179927      19.33319127
  C          -33.57061830      -1.34663146      17.74149332
units = au
no_com
no_reorient
}

set {
  e_convergence 10
  d_convergence 10
  scf_type df
  mp2_type df
  cc_type df
  freeze_core true
}

energy('sapt0/aug-cc-pvdz')

--------------------------------------------------------------------------

  //              Dimer HF             //
    Molecular point group: c1
  Charge       = 0
  Multiplicity = 1
  Basis Set: AUG-CC-PVDZ
    Blend: AUG-CC-PVDZ
  Basis Set: (AUG-CC-PVDZ AUX)
    Blend: AUG-CC-PVDZ-JKFIT
  @DF-RHF Final Energy:  -449.52477468590632
    Total Energy =                       -449.5247746859063227
  //            Monomer A HF           //
    Molecular point group: c1
  Multiplicity = 1
  Basis Set: AUG-CC-PVDZ
    Blend: AUG-CC-PVDZ
  Basis Set: (AUG-CC-PVDZ AUX)
    Blend: AUG-CC-PVDZ-JKFIT
  @DF-RHF Final Energy:  -224.76233952012652
    Total Energy =                       -224.7623395201265168
  //            Monomer B HF           //
    Molecular point group: c1

    Geometry (in Bohr), charge = 0, multiplicity = 1:

       Center              X                  Y                   Z               Mass
    ------------   -----------------  -----------------  -----------------  -----------------
      Gh(N)           6.279812100000    -4.253033720000     0.193138650000    14.003074004430
      Gh(N)           6.068707770000    -2.281256970000     1.805443170000    14.003074004430
      Gh(H)           3.668711560000    -5.646289410000    -1.966840010000     1.007825032230
      Gh(H)           0.690345210000    -2.375456940000    -0.428642360000     1.007825032230
      Gh(H)           3.359174420000     0.176506010000     3.092650170000     1.007825032230
      Gh(H)           7.352667820000    -1.994613110000     2.906807020000     1.007825032230
      Gh(C)           3.779525860000    -1.215084530000     1.768581720000    12.000000000000
      Gh(C)           2.382429980000    -2.555055380000     0.046076810000    12.000000000000
      Gh(C)           4.017714680000    -4.384104900000    -0.887618630000    12.000000000000
         N          -35.894004060000    -2.293388780000    17.656891170000    14.003074004430
         N          -35.775141800000    -4.331295820000    19.194064890000    14.003074004430
         H          -33.220841330000     0.107521180000    16.938860820000     1.007825032230
         H          -30.326204770000    -2.335017560000    19.693998320000     1.007825032230
         H          -33.262628840000    -6.048066570000    21.598634630000     1.007825032230
         H          -37.237550020000    -5.141272880000    19.579830220000     1.007825032230
         C          -33.492305400000    -4.661471490000    20.223113740000    12.000000000000
         C          -32.009312960000    -2.731799270000    19.333191270000    12.000000000000
         C          -33.570618300000    -1.346631460000    17.741493320000    12.000000000000

  Charge       = 0
  Multiplicity = 1
  Basis Set: AUG-CC-PVDZ
    Blend: AUG-CC-PVDZ
  Basis Set: (AUG-CC-PVDZ AUX)
    Blend: AUG-CC-PVDZ-JKFIT

    Orbital Energies [Eh]
    ---------------------

    Doubly Occupied:

       1A    -15.636233     2A    -15.592291     3A    -11.279903
       4A    -11.237759     5A    -11.209884     6A     -1.387001
       7A     -1.121894     8A     -1.066928     9A     -0.872759
      10A     -0.837039    11A     -0.757272    12A     -0.645745
      13A     -0.620828    14A     -0.609177    15A     -0.583905
      16A     -0.461413    17A     -0.370715    18A     -0.346055

  @DF-RHF Final Energy:  -224.76243506086630

   => Energetics <=

    Nuclear Repulsion Energy =            166.6286027774856109
    One-Electron Energy =                -633.5084733393165379
    Two-Electron Energy =                 242.1174355009646035
    Total Energy =                       -224.7624350608662951

  Dipole Moment: [D]
     X:     0.7394      Y:    -1.4336      Z:     1.7871     Total:     2.4074

    SAPT Results
  --------------------------------------------------------------------------------------------------------
    Electrostatics                 -0.00016482 [mEh]      -0.00010343 [kcal/mol]      -0.00043274 [kJ/mol]
      Elst10,r                     -0.00016482 [mEh]      -0.00010343 [kcal/mol]      -0.00043274 [kJ/mol]

    Exchange                        0.00000000 [mEh]       0.00000000 [kcal/mol]       0.00000000 [kJ/mol]
      Exch10                        0.00000000 [mEh]       0.00000000 [kcal/mol]       0.00000000 [kJ/mol]
      Exch10(S^2)                   0.00000000 [mEh]       0.00000000 [kcal/mol]       0.00000000 [kJ/mol]

    Induction                       0.00005991 [mEh]       0.00003759 [kcal/mol]       0.00015729 [kJ/mol]
      Ind20,r                      -0.00000824 [mEh]      -0.00000517 [kcal/mol]      -0.00002162 [kJ/mol]
      Exch-Ind20,r                  0.00000000 [mEh]       0.00000000 [kcal/mol]       0.00000000 [kJ/mol]
      delta HF,r (2)                0.00006814 [mEh]       0.00004276 [kcal/mol]       0.00017891 [kJ/mol]

    Dispersion                     -0.00019565 [mEh]      -0.00012277 [kcal/mol]      -0.00051367 [kJ/mol]
      Disp20                       -0.00019565 [mEh]      -0.00012277 [kcal/mol]      -0.00051367 [kJ/mol]
      Exch-Disp20                   0.00000000 [mEh]       0.00000000 [kcal/mol]       0.00000000 [kJ/mol]
      Disp20 (SS)                  -0.00009782 [mEh]      -0.00006139 [kcal/mol]      -0.00025684 [kJ/mol]
      Disp20 (OS)                  -0.00009782 [mEh]      -0.00006139 [kcal/mol]      -0.00025684 [kJ/mol]
      Exch-Disp20 (SS)              0.00000000 [mEh]       0.00000000 [kcal/mol]       0.00000000 [kJ/mol]
      Exch-Disp20 (OS)              0.00000000 [mEh]       0.00000000 [kcal/mol]       0.00000000 [kJ/mol]

  Total HF                         -0.00010491 [mEh]      -0.00006583 [kcal/mol]      -0.00027545 [kJ/mol]
  Total SAPT0                      -0.00030056 [mEh]      -0.00018860 [kcal/mol]      -0.00078912 [kJ/mol]

  Special recipe for scaled SAPT0 (see Manual):
    Electrostatics sSAPT0          -0.00016482 [mEh]      -0.00010343 [kcal/mol]      -0.00043274 [kJ/mol]
    Exchange sSAPT0                 0.00000000 [mEh]       0.00000000 [kcal/mol]       0.00000000 [kJ/mol]
    Induction sSAPT0                0.00005991 [mEh]       0.00003759 [kcal/mol]       0.00015729 [kJ/mol]
    Dispersion sSAPT0              -0.00019565 [mEh]      -0.00012277 [kcal/mol]      -0.00051367 [kJ/mol]
  Total sSAPT0                     -0.00030056 [mEh]      -0.00018860 [kcal/mol]      -0.00078912 [kJ/mol]
  --------------------------------------------------------------------------------------------------------

*** Psi4 exiting successfully. Buy a developer a beer!
