                               Psi4 1.4rc3

  ==> Input File <==

--------------------------------------------------------------------------
# PSI4 file produced by CrystaLattE

# Generated from:               pyrazole.xyz
# Psithon input for N-mer:      2mer-0+618
# Number of atoms per monomer:  [9, 9]
# Number of replicas:           1
# COM priority:                 1.384463094526e-05
# Minimum COM separations:      22.038
# Separation priority:          2.393332126174e-05
# Minimum monomer separations:  18.363
# Cutoff priority:              6.897165184386e-07
# Nuclear repulsion energy:     364.3928514979179

memory 7 GB

molecule Dimer_0_618 {
  N            6.27981210      -4.25303372       0.19313865
  N            6.06870777      -2.28125697       1.80544317
  H            3.66871156      -5.64628941      -1.96684001
  H            0.69034521      -2.37545694      -0.42864236
  H            3.35917442       0.17650601       3.09265017
  H            7.35266782      -1.99461311       2.90680702
  C            3.77952586      -1.21508453       1.76858172
  C            2.38242998      -2.55505538       0.04607681
  C            4.01771468      -4.38410490      -0.88761863
--
  N           33.75185229       9.60054745      27.18608831
  N           33.87071455       7.56264041      25.64891459
  H           36.42501503      12.00145742      27.90411866
  H           39.31965158       9.55891867      25.14898116
  H           36.38322751       5.84586966      23.24434485
  H           32.40830634       6.75266336      25.26314926
  C           36.15355095       7.23246474      24.61986574
  C           37.63654339       9.16213696      25.50978821
  C           36.07523806      10.54730477      27.10148616
units = au
no_com
no_reorient
}

set {
  e_convergence 10
  d_convergence 10
  scf_type df
  mp2_type df
  cc_type df
  freeze_core true
}

energy('sapt0/aug-cc-pvdz')

--------------------------------------------------------------------------

  //              Dimer HF             //
    Molecular point group: c1
  Charge       = 0
  Multiplicity = 1
  Basis Set: AUG-CC-PVDZ
    Blend: AUG-CC-PVDZ
  Basis Set: (AUG-CC-PVDZ AUX)
    Blend: AUG-CC-PVDZ-JKFIT
  @DF-RHF Final Energy:  -449.52478130499196
    Total Energy =                       -449.5247813049919614
  //            Monomer A HF           //
    Molecular point group: c1
  Multiplicity = 1
  Basis Set: AUG-CC-PVDZ
    Blend: AUG-CC-PVDZ
  Basis Set: (AUG-CC-PVDZ AUX)
    Blend: AUG-CC-PVDZ-JKFIT
  @DF-RHF Final Energy:  -224.76233952118832
    Total Energy =                       -224.7623395211883235
  //            Monomer B HF           //
    Molecular point group: c1

    Geometry (in Bohr), charge = 0, multiplicity = 1:

       Center              X                  Y                   Z               Mass
    ------------   -----------------  -----------------  -----------------  -----------------
      Gh(N)           6.279812100000    -4.253033720000     0.193138650000    14.003074004430
      Gh(N)           6.068707770000    -2.281256970000     1.805443170000    14.003074004430
      Gh(H)           3.668711560000    -5.646289410000    -1.966840010000     1.007825032230
      Gh(H)           0.690345210000    -2.375456940000    -0.428642360000     1.007825032230
      Gh(H)           3.359174420000     0.176506010000     3.092650170000     1.007825032230
      Gh(H)           7.352667820000    -1.994613110000     2.906807020000     1.007825032230
      Gh(C)           3.779525860000    -1.215084530000     1.768581720000    12.000000000000
      Gh(C)           2.382429980000    -2.555055380000     0.046076810000    12.000000000000
      Gh(C)           4.017714680000    -4.384104900000    -0.887618630000    12.000000000000
         N           33.751852290000     9.600547450000    27.186088310000    14.003074004430
         N           33.870714550000     7.562640410000    25.648914590000    14.003074004430
         H           36.425015030000    12.001457420000    27.904118660000     1.007825032230
         H           39.319651580000     9.558918670000    25.148981160000     1.007825032230
         H           36.383227510000     5.845869660000    23.244344850000     1.007825032230
         H           32.408306340000     6.752663360000    25.263149260000     1.007825032230
         C           36.153550950000     7.232464740000    24.619865740000    12.000000000000
         C           37.636543390000     9.162136960000    25.509788210000    12.000000000000
         C           36.075238060000    10.547304770000    27.101486160000    12.000000000000

  Charge       = 0
  Multiplicity = 1
  Basis Set: AUG-CC-PVDZ
    Blend: AUG-CC-PVDZ
  Basis Set: (AUG-CC-PVDZ AUX)
    Blend: AUG-CC-PVDZ-JKFIT

    Orbital Energies [Eh]
    ---------------------

    Doubly Occupied:

       1A    -15.636233     2A    -15.592291     3A    -11.279903
       4A    -11.237759     5A    -11.209884     6A     -1.387001
       7A     -1.121894     8A     -1.066928     9A     -0.872759
      10A     -0.837039    11A     -0.757272    12A     -0.645745
      13A     -0.620828    14A     -0.609177    15A     -0.583905
      16A     -0.461413    17A     -0.370715    18A     -0.346055

  @DF-RHF Final Energy:  -224.76243506133133

   => Energetics <=

    Nuclear Repulsion Energy =            166.6286027509456176
    One-Electron Energy =                -633.5084732794560978
    Two-Electron Energy =                 242.1174354671791491
    Total Energy =                       -224.7624350613313311

  Dipole Moment: [D]
     X:     0.7394      Y:    -1.4336      Z:    -1.7871     Total:     2.4074

    SAPT Results
  --------------------------------------------------------------------------------------------------------
    Electrostatics                 -0.00674295 [mEh]      -0.00423127 [kcal/mol]      -0.01770361 [kJ/mol]
      Elst10,r                     -0.00674295 [mEh]      -0.00423127 [kcal/mol]      -0.01770361 [kJ/mol]

    Exchange                        0.00000000 [mEh]       0.00000000 [kcal/mol]       0.00000000 [kJ/mol]
      Exch10                        0.00000000 [mEh]       0.00000000 [kcal/mol]       0.00000000 [kJ/mol]
      Exch10(S^2)                   0.00000000 [mEh]       0.00000000 [kcal/mol]       0.00000000 [kJ/mol]

    Induction                       0.00002048 [mEh]       0.00001285 [kcal/mol]       0.00005376 [kJ/mol]
      Ind20,r                      -0.00001911 [mEh]      -0.00001199 [kcal/mol]      -0.00005016 [kJ/mol]
      Exch-Ind20,r                  0.00000000 [mEh]       0.00000000 [kcal/mol]       0.00000000 [kJ/mol]
      delta HF,r (2)                0.00003958 [mEh]       0.00002484 [kcal/mol]       0.00010393 [kJ/mol]

    Dispersion                     -0.00023324 [mEh]      -0.00014636 [kcal/mol]      -0.00061236 [kJ/mol]
      Disp20                       -0.00023324 [mEh]      -0.00014636 [kcal/mol]      -0.00061236 [kJ/mol]
      Exch-Disp20                   0.00000000 [mEh]       0.00000000 [kcal/mol]       0.00000000 [kJ/mol]
      Disp20 (SS)                  -0.00011662 [mEh]      -0.00007318 [kcal/mol]      -0.00030618 [kJ/mol]
      Disp20 (OS)                  -0.00011662 [mEh]      -0.00007318 [kcal/mol]      -0.00030618 [kJ/mol]
      Exch-Disp20 (SS)              0.00000000 [mEh]       0.00000000 [kcal/mol]       0.00000000 [kJ/mol]
      Exch-Disp20 (OS)              0.00000000 [mEh]       0.00000000 [kcal/mol]       0.00000000 [kJ/mol]

  Total HF                         -0.00672247 [mEh]      -0.00421842 [kcal/mol]      -0.01764985 [kJ/mol]
  Total SAPT0                      -0.00695571 [mEh]      -0.00436477 [kcal/mol]      -0.01826221 [kJ/mol]

  Special recipe for scaled SAPT0 (see Manual):
    Electrostatics sSAPT0          -0.00674295 [mEh]      -0.00423127 [kcal/mol]      -0.01770361 [kJ/mol]
    Exchange sSAPT0                 0.00000000 [mEh]       0.00000000 [kcal/mol]       0.00000000 [kJ/mol]
    Induction sSAPT0                0.00002048 [mEh]       0.00001285 [kcal/mol]       0.00005376 [kJ/mol]
    Dispersion sSAPT0              -0.00023324 [mEh]      -0.00014636 [kcal/mol]      -0.00061236 [kJ/mol]
  Total sSAPT0                     -0.00695571 [mEh]      -0.00436477 [kcal/mol]      -0.01826221 [kJ/mol]
  --------------------------------------------------------------------------------------------------------

*** Psi4 exiting successfully. Buy a developer a beer!
