                               Psi4 1.4rc3

  ==> Input File <==

--------------------------------------------------------------------------
# PSI4 file produced by CrystaLattE

# Generated from:               pyrazole.xyz
# Psithon input for N-mer:      2mer-0+43
# Number of atoms per monomer:  [9, 9]
# Number of replicas:           1
# COM priority:                 8.291407238052e-05
# Minimum COM separations:      12.136
# Separation priority:          2.974733429222e-04
# Minimum monomer separations:  7.927
# Cutoff priority:              1.985778199739e-05
# Nuclear repulsion energy:     390.17542378008295

memory 7 GB

molecule Dimer_0_43 {
  N            6.27981210      -4.25303372       0.19313865
  N            6.06870777      -2.28125697       1.80544317
  H            3.66871156      -5.64628941      -1.96684001
  H            0.69034521      -2.37545694      -0.42864236
  H            3.35917442       0.17650601       3.09265017
  H            7.35266782      -1.99461311       2.90680702
  C            3.77952586      -1.21508453       1.76858172
  C            2.38242998      -2.55505538       0.04607681
  C            4.01771468      -4.38410490      -0.88761863
--
  N           -4.94029013      14.29484620      11.25733365
  N           -4.82142787      16.33275324      12.79450737
  H           -2.26712739      11.89393623      10.53930329
  H            0.62750917      14.33647498      13.29444080
  H           -2.30891491      18.04952399      15.19907711
  H           -6.28383608      17.14273029      13.18027269
  C           -2.53859146      16.66292891      13.82355622
  C           -1.05559903      14.73325669      12.93363375
  C           -2.61690436      13.34808888      11.34193580
units = au
no_com
no_reorient
}

set {
  e_convergence 10
  d_convergence 10
  scf_type df
  mp2_type df
  cc_type df
  freeze_core true
}

energy('sapt0/aug-cc-pvdz')

--------------------------------------------------------------------------

  //              Dimer HF             //
    Molecular point group: c1
  Charge       = 0
  Multiplicity = 1
  Basis Set: AUG-CC-PVDZ
    Blend: AUG-CC-PVDZ
  Basis Set: (AUG-CC-PVDZ AUX)
    Blend: AUG-CC-PVDZ-JKFIT
  @DF-RHF Final Energy:  -449.52480260592790
    Total Energy =                       -449.5248026059279027
  //            Monomer A HF           //
    Molecular point group: c1
  Multiplicity = 1
  Basis Set: AUG-CC-PVDZ
    Blend: AUG-CC-PVDZ
  Basis Set: (AUG-CC-PVDZ AUX)
    Blend: AUG-CC-PVDZ-JKFIT
  @DF-RHF Final Energy:  -224.76234703101656
    Total Energy =                       -224.7623470310165601
  //            Monomer B HF           //
    Molecular point group: c1

    Geometry (in Bohr), charge = 0, multiplicity = 1:

       Center              X                  Y                   Z               Mass
    ------------   -----------------  -----------------  -----------------  -----------------
      Gh(N)           6.279812100000    -4.253033720000     0.193138650000    14.003074004430
      Gh(N)           6.068707770000    -2.281256970000     1.805443170000    14.003074004430
      Gh(H)           3.668711560000    -5.646289410000    -1.966840010000     1.007825032230
      Gh(H)           0.690345210000    -2.375456940000    -0.428642360000     1.007825032230
      Gh(H)           3.359174420000     0.176506010000     3.092650170000     1.007825032230
      Gh(H)           7.352667820000    -1.994613110000     2.906807020000     1.007825032230
      Gh(C)           3.779525860000    -1.215084530000     1.768581720000    12.000000000000
      Gh(C)           2.382429980000    -2.555055380000     0.046076810000    12.000000000000
      Gh(C)           4.017714680000    -4.384104900000    -0.887618630000    12.000000000000
         N           -4.940290130000    14.294846200000    11.257333650000    14.003074004430
         N           -4.821427870000    16.332753240000    12.794507370000    14.003074004430
         H           -2.267127390000    11.893936230000    10.539303290000     1.007825032230
         H            0.627509170000    14.336474980000    13.294440800000     1.007825032230
         H           -2.308914910000    18.049523990000    15.199077110000     1.007825032230
         H           -6.283836080000    17.142730290000    13.180272690000     1.007825032230
         C           -2.538591460000    16.662928910000    13.823556220000    12.000000000000
         C           -1.055599030000    14.733256690000    12.933633750000    12.000000000000
         C           -2.616904360000    13.348088880000    11.341935800000    12.000000000000

  Charge       = 0
  Multiplicity = 1
  Basis Set: AUG-CC-PVDZ
    Blend: AUG-CC-PVDZ
  Basis Set: (AUG-CC-PVDZ AUX)
    Blend: AUG-CC-PVDZ-JKFIT

    Orbital Energies [Eh]
    ---------------------

    Doubly Occupied:

       1A    -15.636233     2A    -15.592290     3A    -11.279904
       4A    -11.237751     5A    -11.209884     6A     -1.387001
       7A     -1.121893     8A     -1.066928     9A     -0.872758
      10A     -0.837039    11A     -0.757273    12A     -0.645746
      13A     -0.620829    14A     -0.609177    15A     -0.583905
      16A     -0.461413    17A     -0.370715    18A     -0.346055

  @DF-RHF Final Energy:  -224.76244496002238

   => Energetics <=

    Nuclear Repulsion Energy =            166.6286026726039324
    One-Electron Energy =                -633.5085086201020204
    Two-Electron Energy =                 242.1174609874756811
    Total Energy =                       -224.7624449600223784

  Dipole Moment: [D]
     X:     0.7395      Y:     1.4336      Z:     1.7872     Total:     2.4075

    SAPT Results
  --------------------------------------------------------------------------------------------------------
    Electrostatics                 -0.00981627 [mEh]      -0.00615980 [kcal/mol]      -0.02577262 [kJ/mol]
      Elst10,r                     -0.00981627 [mEh]      -0.00615980 [kcal/mol]      -0.02577262 [kJ/mol]

    Exchange                        0.00000787 [mEh]       0.00000494 [kcal/mol]       0.00002066 [kJ/mol]
      Exch10                        0.00000787 [mEh]       0.00000494 [kcal/mol]       0.00002066 [kJ/mol]
      Exch10(S^2)                   0.00000787 [mEh]       0.00000494 [kcal/mol]       0.00002066 [kJ/mol]

    Induction                      -0.00080649 [mEh]      -0.00050608 [kcal/mol]      -0.00211743 [kJ/mol]
      Ind20,r                      -0.00094857 [mEh]      -0.00059524 [kcal/mol]      -0.00249048 [kJ/mol]
      Exch-Ind20,r                  0.00001173 [mEh]       0.00000736 [kcal/mol]       0.00003079 [kJ/mol]
      delta HF,r (2)                0.00013036 [mEh]       0.00008180 [kcal/mol]       0.00034226 [kJ/mol]

    Dispersion                     -0.01113453 [mEh]      -0.00698702 [kcal/mol]      -0.02923371 [kJ/mol]
      Disp20                       -0.01113516 [mEh]      -0.00698742 [kcal/mol]      -0.02923535 [kJ/mol]
      Exch-Disp20                   0.00000063 [mEh]       0.00000039 [kcal/mol]       0.00000165 [kJ/mol]
      Disp20 (SS)                  -0.00556758 [mEh]      -0.00349371 [kcal/mol]      -0.01461768 [kJ/mol]
      Disp20 (OS)                  -0.00556758 [mEh]      -0.00349371 [kcal/mol]      -0.01461768 [kJ/mol]
      Exch-Disp20 (SS)              0.00000049 [mEh]       0.00000031 [kcal/mol]       0.00000129 [kJ/mol]
      Exch-Disp20 (OS)              0.00000014 [mEh]       0.00000009 [kcal/mol]       0.00000036 [kJ/mol]

  Total HF                         -0.01061489 [mEh]      -0.00666094 [kcal/mol]      -0.02786939 [kJ/mol]
  Total SAPT0                      -0.02174942 [mEh]      -0.01364797 [kcal/mol]      -0.05710309 [kJ/mol]

  Special recipe for scaled SAPT0 (see Manual):
    Electrostatics sSAPT0          -0.00981627 [mEh]      -0.00615980 [kcal/mol]      -0.02577262 [kJ/mol]
    Exchange sSAPT0                 0.00000787 [mEh]       0.00000494 [kcal/mol]       0.00002066 [kJ/mol]
    Induction sSAPT0               -0.00080649 [mEh]      -0.00050608 [kcal/mol]      -0.00211743 [kJ/mol]
    Dispersion sSAPT0              -0.01113453 [mEh]      -0.00698702 [kcal/mol]      -0.02923371 [kJ/mol]
  Total sSAPT0                     -0.02174942 [mEh]      -0.01364797 [kcal/mol]      -0.05710309 [kJ/mol]
  --------------------------------------------------------------------------------------------------------

*** Psi4 exiting successfully. Buy a developer a beer!
