                               Psi4 1.4rc3

  ==> Input File <==

--------------------------------------------------------------------------
# PSI4 file produced by CrystaLattE

# Generated from:               pyrazole.xyz
# Psithon input for N-mer:      2mer-0+550
# Number of atoms per monomer:  [9, 9]
# Number of replicas:           1
# COM priority:                 1.570221250780e-05
# Minimum COM separations:      21.132
# Separation priority:          2.333824429889e-05
# Minimum monomer separations:  18.517
# Cutoff priority:              6.669463633477e-07
# Nuclear repulsion energy:     365.6494282712812

memory 7 GB

molecule Dimer_0_550 {
  N            6.27981210      -4.25303372       0.19313865
  N            6.06870777      -2.28125697       1.80544317
  H            3.66871156      -5.64628941      -1.96684001
  H            0.69034521      -2.37545694      -0.42864236
  H            3.35917442       0.17650601       3.09265017
  H            7.35266782      -1.99461311       2.90680702
  C            3.77952586      -1.21508453       1.76858172
  C            2.38242998      -2.55505538       0.04607681
  C            4.01771468      -4.38410490      -0.88761863
--
  N           10.53656684     -26.08126125      30.45600622
  N           10.65542910     -28.11916829      31.99317994
  H           13.20972957     -23.68035128      29.73797587
  H           16.10436613     -26.12289003      32.49311337
  H           13.16794206     -29.83593904      34.39774968
  H            9.19302089     -28.92914534      32.37894527
  C           12.93826550     -28.44934396      33.02222879
  C           14.42125794     -26.51967174      32.13230632
  C           12.85995261     -25.13450393      30.54060837
units = au
no_com
no_reorient
}

set {
  e_convergence 10
  d_convergence 10
  scf_type df
  mp2_type df
  cc_type df
  freeze_core true
}

energy('sapt0/aug-cc-pvdz')

--------------------------------------------------------------------------

  //              Dimer HF             //
    Molecular point group: c1
  Charge       = 0
  Multiplicity = 1
  Basis Set: AUG-CC-PVDZ
    Blend: AUG-CC-PVDZ
  Basis Set: (AUG-CC-PVDZ AUX)
    Blend: AUG-CC-PVDZ-JKFIT
  @DF-RHF Final Energy:  -449.52477115655449
    Total Energy =                       -449.5247711565544932
  //            Monomer A HF           //
    Molecular point group: c1
  Multiplicity = 1
  Basis Set: AUG-CC-PVDZ
    Blend: AUG-CC-PVDZ
  Basis Set: (AUG-CC-PVDZ AUX)
    Blend: AUG-CC-PVDZ-JKFIT
  @DF-RHF Final Energy:  -224.76233952124542
    Total Energy =                       -224.7623395212454227
  //            Monomer B HF           //
    Molecular point group: c1

    Geometry (in Bohr), charge = 0, multiplicity = 1:

       Center              X                  Y                   Z               Mass
    ------------   -----------------  -----------------  -----------------  -----------------
      Gh(N)           6.279812100000    -4.253033720000     0.193138650000    14.003074004430
      Gh(N)           6.068707770000    -2.281256970000     1.805443170000    14.003074004430
      Gh(H)           3.668711560000    -5.646289410000    -1.966840010000     1.007825032230
      Gh(H)           0.690345210000    -2.375456940000    -0.428642360000     1.007825032230
      Gh(H)           3.359174420000     0.176506010000     3.092650170000     1.007825032230
      Gh(H)           7.352667820000    -1.994613110000     2.906807020000     1.007825032230
      Gh(C)           3.779525860000    -1.215084530000     1.768581720000    12.000000000000
      Gh(C)           2.382429980000    -2.555055380000     0.046076810000    12.000000000000
      Gh(C)           4.017714680000    -4.384104900000    -0.887618630000    12.000000000000
         N           10.536566840000   -26.081261250000    30.456006220000    14.003074004430
         N           10.655429100000   -28.119168290000    31.993179940000    14.003074004430
         H           13.209729570000   -23.680351280000    29.737975870000     1.007825032230
         H           16.104366130000   -26.122890030000    32.493113370000     1.007825032230
         H           13.167942060000   -29.835939040000    34.397749680000     1.007825032230
         H            9.193020890000   -28.929145340000    32.378945270000     1.007825032230
         C           12.938265500000   -28.449343960000    33.022228790000    12.000000000000
         C           14.421257940000   -26.519671740000    32.132306320000    12.000000000000
         C           12.859952610000   -25.134503930000    30.540608370000    12.000000000000

  Charge       = 0
  Multiplicity = 1
  Basis Set: AUG-CC-PVDZ
    Blend: AUG-CC-PVDZ
  Basis Set: (AUG-CC-PVDZ AUX)
    Blend: AUG-CC-PVDZ-JKFIT

    Orbital Energies [Eh]
    ---------------------

    Doubly Occupied:

       1A    -15.636233     2A    -15.592291     3A    -11.279903
       4A    -11.237759     5A    -11.209884     6A     -1.387001
       7A     -1.121894     8A     -1.066928     9A     -0.872759
      10A     -0.837039    11A     -0.757272    12A     -0.645745
      13A     -0.620828    14A     -0.609177    15A     -0.583905
      16A     -0.461413    17A     -0.370715    18A     -0.346055

  @DF-RHF Final Energy:  -224.76243506124405

   => Energetics <=

    Nuclear Repulsion Energy =            166.6286027587561875
    One-Electron Energy =                -633.5084732930090468
    Two-Electron Energy =                 242.1174354730088112
    Total Energy =                       -224.7624350612440480

  Dipole Moment: [D]
     X:     0.7394      Y:    -1.4336      Z:     1.7871     Total:     2.4074

    SAPT Results
  --------------------------------------------------------------------------------------------------------
    Electrostatics                  0.00339137 [mEh]       0.00212812 [kcal/mol]       0.00890404 [kJ/mol]
      Elst10,r                      0.00339137 [mEh]       0.00212812 [kcal/mol]       0.00890404 [kJ/mol]

    Exchange                        0.00000000 [mEh]       0.00000000 [kcal/mol]       0.00000000 [kJ/mol]
      Exch10                        0.00000000 [mEh]       0.00000000 [kcal/mol]       0.00000000 [kJ/mol]
      Exch10(S^2)                   0.00000000 [mEh]       0.00000000 [kcal/mol]       0.00000000 [kJ/mol]

    Induction                       0.00003456 [mEh]       0.00002169 [kcal/mol]       0.00009075 [kJ/mol]
      Ind20,r                      -0.00001862 [mEh]      -0.00001168 [kcal/mol]      -0.00004889 [kJ/mol]
      Exch-Ind20,r                  0.00000000 [mEh]       0.00000000 [kcal/mol]       0.00000000 [kJ/mol]
      delta HF,r (2)                0.00005318 [mEh]       0.00003337 [kcal/mol]       0.00013964 [kJ/mol]

    Dispersion                     -0.00026928 [mEh]      -0.00016898 [kcal/mol]      -0.00070700 [kJ/mol]
      Disp20                       -0.00026928 [mEh]      -0.00016898 [kcal/mol]      -0.00070700 [kJ/mol]
      Exch-Disp20                   0.00000000 [mEh]       0.00000000 [kcal/mol]       0.00000000 [kJ/mol]
      Disp20 (SS)                  -0.00013464 [mEh]      -0.00008449 [kcal/mol]      -0.00035350 [kJ/mol]
      Disp20 (OS)                  -0.00013464 [mEh]      -0.00008449 [kcal/mol]      -0.00035350 [kJ/mol]
      Exch-Disp20 (SS)              0.00000000 [mEh]       0.00000000 [kcal/mol]       0.00000000 [kJ/mol]
      Exch-Disp20 (OS)              0.00000000 [mEh]       0.00000000 [kcal/mol]       0.00000000 [kJ/mol]

  Total HF                          0.00342593 [mEh]       0.00214981 [kcal/mol]       0.00899479 [kJ/mol]
  Total SAPT0                       0.00315665 [mEh]       0.00198083 [kcal/mol]       0.00828780 [kJ/mol]

  Special recipe for scaled SAPT0 (see Manual):
    Electrostatics sSAPT0           0.00339137 [mEh]       0.00212812 [kcal/mol]       0.00890404 [kJ/mol]
    Exchange sSAPT0                 0.00000000 [mEh]       0.00000000 [kcal/mol]       0.00000000 [kJ/mol]
    Induction sSAPT0                0.00003456 [mEh]       0.00002169 [kcal/mol]       0.00009075 [kJ/mol]
    Dispersion sSAPT0              -0.00026928 [mEh]      -0.00016898 [kcal/mol]      -0.00070700 [kJ/mol]
  Total sSAPT0                      0.00315665 [mEh]       0.00198083 [kcal/mol]       0.00828780 [kJ/mol]
  --------------------------------------------------------------------------------------------------------

*** Psi4 exiting successfully. Buy a developer a beer!
