                               Psi4 1.4rc3

  ==> Input File <==

--------------------------------------------------------------------------
# PSI4 file produced by CrystaLattE

# Generated from:               pyrazole.xyz
# Psithon input for N-mer:      2mer-0+3
# Number of atoms per monomer:  [9, 9]
# Number of replicas:           1
# COM priority:                 1.356435291893e-03
# Minimum COM separations:      4.780
# Separation priority:          5.626276264412e-03
# Minimum monomer separations:  2.975
# Cutoff priority:              1.000678889088e-03
# Nuclear repulsion energy:     474.12322822358567

memory 7 GB

molecule Dimer_0_3 {
  N            6.27981210      -4.25303372       0.19313865
  N            6.06870777      -2.28125697       1.80544317
  H            3.66871156      -5.64628941      -1.96684001
  H            0.69034521      -2.37545694      -0.42864236
  H            3.35917442       0.17650601       3.09265017
  H            7.35266782      -1.99461311       2.90680702
  C            3.77952586      -1.21508453       1.76858172
  C            2.38242998      -2.55505538       0.04607681
  C            4.01771468      -4.38410490      -0.88761863
--
  N            2.79813836       2.40090997      -4.81169931
  N            2.91700062       4.43881700      -6.34887303
  H            5.47130109       0.00000000      -4.09366896
  H            8.36593765       2.44253874      -6.84880646
  H            5.42951358       6.15558776      -8.75344277
  H            1.45459240       5.24879406      -6.73463836
  C            5.19983702       4.76899267      -7.37792188
  C            6.68282945       2.83932046      -6.48799941
  C            5.12152412       1.45415264      -4.89630146
units = au
no_com
no_reorient
}

set {
  e_convergence 10
  d_convergence 10
  scf_type df
  mp2_type df
  cc_type df
  freeze_core true
}

energy('sapt0/aug-cc-pvdz')

--------------------------------------------------------------------------

  //              Dimer HF             //
    Molecular point group: c1
  Charge       = 0
  Multiplicity = 1
  Basis Set: AUG-CC-PVDZ
    Blend: AUG-CC-PVDZ
  Basis Set: (AUG-CC-PVDZ AUX)
    Blend: AUG-CC-PVDZ-JKFIT
  @DF-RHF Final Energy:  -449.52569354549507
    Total Energy =                       -449.5256935454950735
  //            Monomer A HF           //
    Molecular point group: c1
  Multiplicity = 1
  Basis Set: AUG-CC-PVDZ
    Blend: AUG-CC-PVDZ
  Basis Set: (AUG-CC-PVDZ AUX)
    Blend: AUG-CC-PVDZ-JKFIT
  @DF-RHF Final Energy:  -224.76315618203253
    Total Energy =                       -224.7631561820325317
  //            Monomer B HF           //
    Molecular point group: c1

    Geometry (in Bohr), charge = 0, multiplicity = 1:

       Center              X                  Y                   Z               Mass
    ------------   -----------------  -----------------  -----------------  -----------------
      Gh(N)           6.279812100000    -4.253033720000     0.193138650000    14.003074004430
      Gh(N)           6.068707770000    -2.281256970000     1.805443170000    14.003074004430
      Gh(H)           3.668711560000    -5.646289410000    -1.966840010000     1.007825032230
      Gh(H)           0.690345210000    -2.375456940000    -0.428642360000     1.007825032230
      Gh(H)           3.359174420000     0.176506010000     3.092650170000     1.007825032230
      Gh(H)           7.352667820000    -1.994613110000     2.906807020000     1.007825032230
      Gh(C)           3.779525860000    -1.215084530000     1.768581720000    12.000000000000
      Gh(C)           2.382429980000    -2.555055380000     0.046076810000    12.000000000000
      Gh(C)           4.017714680000    -4.384104900000    -0.887618630000    12.000000000000
         N            2.798138360000     2.400909970000    -4.811699310000    14.003074004430
         N            2.917000620000     4.438817000000    -6.348873030000    14.003074004430
         H            5.471301090000     0.000000000000    -4.093668960000     1.007825032230
         H            8.365937650000     2.442538740000    -6.848806460000     1.007825032230
         H            5.429513580000     6.155587760000    -8.753442770000     1.007825032230
         H            1.454592400000     5.248794060000    -6.734638360000     1.007825032230
         C            5.199837020000     4.768992670000    -7.377921880000    12.000000000000
         C            6.682829450000     2.839320460000    -6.487999410000    12.000000000000
         C            5.121524120000     1.454152640000    -4.896301460000    12.000000000000

  Charge       = 0
  Multiplicity = 1
  Basis Set: AUG-CC-PVDZ
    Blend: AUG-CC-PVDZ
  Basis Set: (AUG-CC-PVDZ AUX)
    Blend: AUG-CC-PVDZ-JKFIT

    Orbital Energies [Eh]
    ---------------------

    Doubly Occupied:

       1A    -15.636229     2A    -15.592380     3A    -11.279867
       4A    -11.237635     5A    -11.209785     6A     -1.386977
       7A     -1.121853     8A     -1.066910     9A     -0.872761
      10A     -0.837023    11A     -0.757266    12A     -0.645740
      13A     -0.620817    14A     -0.609173    15A     -0.583894
      16A     -0.461380    17A     -0.370705    18A     -0.346051

  @DF-RHF Final Energy:  -224.76285904845676

   => Energetics <=

    Nuclear Repulsion Energy =            166.6286029183496851
    One-Electron Energy =                -633.5100329783658708
    Two-Electron Energy =                 242.1185710115594532
    Total Energy =                       -224.7628590484567610

  Dipole Moment: [D]
     X:     0.7396      Y:     1.4348      Z:    -1.7878     Total:     2.4088

    SAPT Results
  --------------------------------------------------------------------------------------------------------
    Electrostatics                 -1.88241390 [mEh]      -1.18123255 [kcal/mol]      -4.94227700 [kJ/mol]
      Elst10,r                     -1.88241390 [mEh]      -1.18123255 [kcal/mol]      -4.94227700 [kJ/mol]

    Exchange                        2.75714323 [mEh]       1.73013350 [kcal/mol]       7.23887855 [kJ/mol]
      Exch10                        2.75714323 [mEh]       1.73013350 [kcal/mol]       7.23887855 [kJ/mol]
      Exch10(S^2)                   2.75266940 [mEh]       1.72732613 [kcal/mol]       7.22713251 [kJ/mol]

    Induction                      -0.55304434 [mEh]      -0.34704056 [kcal/mol]      -1.45201772 [kJ/mol]
      Ind20,r                      -1.23815570 [mEh]      -0.77695443 [kcal/mol]      -3.25077734 [kJ/mol]
      Exch-Ind20,r                  0.94331325 [mEh]       0.59193800 [kcal/mol]       2.47666859 [kJ/mol]
      delta HF,r (2)               -0.25820189 [mEh]      -0.16202413 [kcal/mol]      -0.67790896 [kJ/mol]

    Dispersion                     -4.11933006 [mEh]      -2.58491864 [kcal/mol]     -10.81529957 [kJ/mol]
      Disp20                       -4.52260508 [mEh]      -2.83797753 [kcal/mol]     -11.87409800 [kJ/mol]
      Exch-Disp20                   0.40327502 [mEh]       0.25305890 [kcal/mol]       1.05879843 [kJ/mol]
      Disp20 (SS)                  -2.26130254 [mEh]      -1.41898877 [kcal/mol]      -5.93704900 [kJ/mol]
      Disp20 (OS)                  -2.26130254 [mEh]      -1.41898877 [kcal/mol]      -5.93704900 [kJ/mol]
      Exch-Disp20 (SS)              0.25519061 [mEh]       0.16013453 [kcal/mol]       0.67000287 [kJ/mol]
      Exch-Disp20 (OS)              0.14808441 [mEh]       0.09292437 [kcal/mol]       0.38879556 [kJ/mol]

  Total HF                          0.32168499 [mEh]       0.20186038 [kcal/mol]       0.84458384 [kJ/mol]
  Total SAPT0                      -3.79764506 [mEh]      -2.38305825 [kcal/mol]      -9.97071573 [kJ/mol]

  Special recipe for scaled SAPT0 (see Manual):
    Electrostatics sSAPT0          -1.88241390 [mEh]      -1.18123255 [kcal/mol]      -4.94227700 [kJ/mol]
    Exchange sSAPT0                 2.75714323 [mEh]       1.73013350 [kcal/mol]       7.23887855 [kJ/mol]
    Induction sSAPT0               -0.54843744 [mEh]      -0.34414969 [kcal/mol]      -1.43992231 [kJ/mol]
    Dispersion sSAPT0              -4.11736056 [mEh]      -2.58368276 [kcal/mol]     -10.81012867 [kJ/mol]
  Total sSAPT0                     -3.79106867 [mEh]      -2.37893151 [kcal/mol]      -9.95344943 [kJ/mol]
  --------------------------------------------------------------------------------------------------------

*** Psi4 exiting successfully. Buy a developer a beer!
