                               Psi4 1.4rc3

  ==> Input File <==

--------------------------------------------------------------------------
# PSI4 file produced by CrystaLattE

# Generated from:               pyrazole.xyz
# Psithon input for N-mer:      2mer-0+19
# Number of atoms per monomer:  [9, 9]
# Number of replicas:           1
# COM priority:                 1.210491433907e-03
# Minimum COM separations:      4.965
# Separation priority:          1.902327734361e-02
# Minimum monomer separations:  1.982
# Cutoff priority:              5.078246596753e-03
# Nuclear repulsion energy:     474.30894593096707

memory 7 GB

molecule Dimer_0_19 {
  N            6.27981210      -4.25303372       0.19313865
  N            6.06870777      -2.28125697       1.80544317
  H            3.66871156      -5.64628941      -1.96684001
  H            0.69034521      -2.37545694      -0.42864236
  H            3.35917442       0.17650601       3.09265017
  H            7.35266782      -1.99461311       2.90680702
  C            3.77952586      -1.21508453       1.76858172
  C            2.38242998      -2.55505538       0.04607681
  C            4.01771468      -4.38410490      -0.88761863
--
  N           10.53656684      -2.29338878       4.85777613
  N           10.65542910      -4.33129582       6.39494984
  H           13.20972957       0.10752118       4.13974577
  H           16.10436613      -2.33501756       6.89488328
  H           13.16794206      -6.04806657       8.79951959
  H            9.19302089      -5.14127288       6.78071517
  C           12.93826550      -4.66147149       7.42399869
  C           14.42125794      -2.73179927       6.53407622
  C           12.85995261      -1.34663146       4.94237828
units = au
no_com
no_reorient
}

set {
  e_convergence 10
  d_convergence 10
  scf_type df
  mp2_type df
  cc_type df
  freeze_core true
}

energy('sapt0/aug-cc-pvdz')

--------------------------------------------------------------------------

  //              Dimer HF             //
    Molecular point group: c1
  Charge       = 0
  Multiplicity = 1
  Basis Set: AUG-CC-PVDZ
    Blend: AUG-CC-PVDZ
  Basis Set: (AUG-CC-PVDZ AUX)
    Blend: AUG-CC-PVDZ-JKFIT
  @DF-RHF Final Energy:  -449.52984707456210
    Total Energy =                       -449.5298470745620989
  //            Monomer A HF           //
    Molecular point group: c1
  Multiplicity = 1
  Basis Set: AUG-CC-PVDZ
    Blend: AUG-CC-PVDZ
  Basis Set: (AUG-CC-PVDZ AUX)
    Blend: AUG-CC-PVDZ-JKFIT
  @DF-RHF Final Energy:  -224.76274777468345
    Total Energy =                       -224.7627477746834472
  //            Monomer B HF           //
    Molecular point group: c1

    Geometry (in Bohr), charge = 0, multiplicity = 1:

       Center              X                  Y                   Z               Mass
    ------------   -----------------  -----------------  -----------------  -----------------
      Gh(N)           6.279812100000    -4.253033720000     0.193138650000    14.003074004430
      Gh(N)           6.068707770000    -2.281256970000     1.805443170000    14.003074004430
      Gh(H)           3.668711560000    -5.646289410000    -1.966840010000     1.007825032230
      Gh(H)           0.690345210000    -2.375456940000    -0.428642360000     1.007825032230
      Gh(H)           3.359174420000     0.176506010000     3.092650170000     1.007825032230
      Gh(H)           7.352667820000    -1.994613110000     2.906807020000     1.007825032230
      Gh(C)           3.779525860000    -1.215084530000     1.768581720000    12.000000000000
      Gh(C)           2.382429980000    -2.555055380000     0.046076810000    12.000000000000
      Gh(C)           4.017714680000    -4.384104900000    -0.887618630000    12.000000000000
         N           10.536566840000    -2.293388780000     4.857776130000    14.003074004430
         N           10.655429100000    -4.331295820000     6.394949840000    14.003074004430
         H           13.209729570000     0.107521180000     4.139745770000     1.007825032230
         H           16.104366130000    -2.335017560000     6.894883280000     1.007825032230
         H           13.167942060000    -6.048066570000     8.799519590000     1.007825032230
         H            9.193020890000    -5.141272880000     6.780715170000     1.007825032230
         C           12.938265500000    -4.661471490000     7.423998690000    12.000000000000
         C           14.421257940000    -2.731799270000     6.534076220000    12.000000000000
         C           12.859952610000    -1.346631460000     4.942378280000    12.000000000000

  Charge       = 0
  Multiplicity = 1
  Basis Set: AUG-CC-PVDZ
    Blend: AUG-CC-PVDZ
  Basis Set: (AUG-CC-PVDZ AUX)
    Blend: AUG-CC-PVDZ-JKFIT

    Orbital Energies [Eh]
    ---------------------

    Doubly Occupied:

       1A    -15.636152     2A    -15.592413     3A    -11.279794
       4A    -11.237554     5A    -11.209801     6A     -1.386939
       7A     -1.121855     8A     -1.066890     9A     -0.872728
      10A     -0.837013    11A     -0.757241    12A     -0.645707
      13A     -0.620803    14A     -0.609137    15A     -0.583872
      16A     -0.461396    17A     -0.370683    18A     -0.346017

  @DF-RHF Final Energy:  -224.76283627376546

   => Energetics <=

    Nuclear Repulsion Energy =            166.6286028637914285
    One-Electron Energy =                -633.5108880626256678
    Two-Electron Energy =                 242.1194489250687525
    Total Energy =                       -224.7628362737654584

  Dipole Moment: [D]
     X:     0.7339      Y:    -1.4337      Z:     1.7830     Total:     2.4027

    SAPT Results
  --------------------------------------------------------------------------------------------------------
    Electrostatics                -16.82762195 [mEh]     -10.55949220 [kcal/mol]     -44.18091534 [kJ/mol]
      Elst10,r                    -16.82762195 [mEh]     -10.55949220 [kcal/mol]     -44.18091534 [kJ/mol]

    Exchange                       17.56747577 [mEh]      11.02375748 [kcal/mol]      46.12340128 [kJ/mol]
      Exch10                       17.56747577 [mEh]      11.02375748 [kcal/mol]      46.12340128 [kJ/mol]
      Exch10(S^2)                  17.36897511 [mEh]      10.89919643 [kcal/mol]      45.60223786 [kJ/mol]

    Induction                      -5.00287993 [mEh]      -3.13935455 [kcal/mol]     -13.13505946 [kJ/mol]
      Ind20,r                      -8.11231373 [mEh]      -5.09055372 [kcal/mol]     -21.29887677 [kJ/mol]
      Exch-Ind20,r                  5.13563046 [mEh]       3.22265677 [kcal/mol]      13.48359593 [kJ/mol]
      delta HF,r (2)               -2.02619667 [mEh]      -1.27145760 [kcal/mol]      -5.31977861 [kJ/mol]

    Dispersion                     -6.31035697 [mEh]      -3.95980878 [kcal/mol]     -16.56783995 [kJ/mol]
      Disp20                       -7.52220159 [mEh]      -4.72025276 [kcal/mol]     -19.74953756 [kJ/mol]
      Exch-Disp20                   1.21184462 [mEh]       0.76044398 [kcal/mol]       3.18169761 [kJ/mol]
      Disp20 (SS)                  -3.76110080 [mEh]      -2.36012638 [kcal/mol]      -9.87476878 [kJ/mol]
      Disp20 (OS)                  -3.76110080 [mEh]      -2.36012638 [kcal/mol]      -9.87476878 [kJ/mol]
      Exch-Disp20 (SS)              0.75038659 [mEh]       0.47087470 [kcal/mol]       1.97013973 [kJ/mol]
      Exch-Disp20 (OS)              0.46145803 [mEh]       0.28956928 [kcal/mol]       1.21155788 [kJ/mol]

  Total HF                         -4.26302611 [mEh]      -2.67508927 [kcal/mol]     -11.19257352 [kJ/mol]
  Total SAPT0                     -10.57338308 [mEh]      -6.63489806 [kcal/mol]     -27.76041346 [kJ/mol]

  Special recipe for scaled SAPT0 (see Manual):
    Electrostatics sSAPT0         -16.82762195 [mEh]     -10.55949220 [kcal/mol]     -44.18091534 [kJ/mol]
    Exchange sSAPT0                17.56747577 [mEh]      11.02375748 [kcal/mol]      46.12340128 [kJ/mol]
    Induction sSAPT0               -4.82478291 [mEh]      -3.02759699 [kcal/mol]     -12.66746579 [kJ/mol]
    Dispersion sSAPT0              -6.26833177 [mEh]      -3.93343757 [kcal/mol]     -16.45750279 [kJ/mol]
  Total sSAPT0                    -10.35326086 [mEh]      -6.49676927 [kcal/mol]     -27.18248264 [kJ/mol]
  --------------------------------------------------------------------------------------------------------

*** Psi4 exiting successfully. Buy a developer a beer!
