                               Psi4 1.4rc3

  ==> Input File <==

--------------------------------------------------------------------------
# PSI4 file produced by CrystaLattE

# Generated from:               pyrazole.xyz
# Psithon input for N-mer:      2mer-0+437
# Number of atoms per monomer:  [9, 9]
# Number of replicas:           1
# COM priority:                 1.489663181011e-05
# Minimum COM separations:      21.507
# Separation priority:          2.266864902474e-05
# Minimum monomer separations:  18.698
# Cutoff priority:              6.415554291591e-07
# Nuclear repulsion energy:     365.16551932426614

memory 7 GB

molecule Dimer_0_437 {
  N            6.27981210      -4.25303372       0.19313865
  N            6.06870777      -2.28125697       1.80544317
  H            3.66871156      -5.64628941      -1.96684001
  H            0.69034521      -2.37545694      -0.42864236
  H            3.35917442       0.17650601       3.09265017
  H            7.35266782      -1.99461311       2.90680702
  C            3.77952586      -1.21508453       1.76858172
  C            2.38242998      -2.55505538       0.04607681
  C            4.01771468      -4.38410490      -0.88761863
--
  N          -28.15557558     -21.38696250     -17.61081436
  N          -28.03671332     -19.34905546     -19.14798808
  H          -25.48241284     -23.78787247     -16.89278400
  H          -22.58777629     -21.34533372     -19.64792151
  H          -25.52420036     -17.63228471     -21.55255782
  H          -29.49912153     -18.53907841     -19.53375340
  C          -25.75387692     -19.01887980     -20.17703693
  C          -24.27088448     -20.94855201     -19.28711446
  C          -25.83218981     -22.33371982     -17.69541651
units = au
no_com
no_reorient
}

set {
  e_convergence 10
  d_convergence 10
  scf_type df
  mp2_type df
  cc_type df
  freeze_core true
}

energy('sapt0/aug-cc-pvdz')

--------------------------------------------------------------------------

  //              Dimer HF             //
    Molecular point group: c1
  Charge       = 0
  Multiplicity = 1
  Basis Set: AUG-CC-PVDZ
    Blend: AUG-CC-PVDZ
  Basis Set: (AUG-CC-PVDZ AUX)
    Blend: AUG-CC-PVDZ-JKFIT
  @DF-RHF Final Energy:  -449.52477780266270
    Total Energy =                       -449.5247778026626975
  //            Monomer A HF           //
    Molecular point group: c1
  Multiplicity = 1
  Basis Set: AUG-CC-PVDZ
    Blend: AUG-CC-PVDZ
  Basis Set: (AUG-CC-PVDZ AUX)
    Blend: AUG-CC-PVDZ-JKFIT
  @DF-RHF Final Energy:  -224.76233952023202
    Total Energy =                       -224.7623395202320182
  //            Monomer B HF           //
    Molecular point group: c1

    Geometry (in Bohr), charge = 0, multiplicity = 1:

       Center              X                  Y                   Z               Mass
    ------------   -----------------  -----------------  -----------------  -----------------
      Gh(N)           6.279812100000    -4.253033720000     0.193138650000    14.003074004430
      Gh(N)           6.068707770000    -2.281256970000     1.805443170000    14.003074004430
      Gh(H)           3.668711560000    -5.646289410000    -1.966840010000     1.007825032230
      Gh(H)           0.690345210000    -2.375456940000    -0.428642360000     1.007825032230
      Gh(H)           3.359174420000     0.176506010000     3.092650170000     1.007825032230
      Gh(H)           7.352667820000    -1.994613110000     2.906807020000     1.007825032230
      Gh(C)           3.779525860000    -1.215084530000     1.768581720000    12.000000000000
      Gh(C)           2.382429980000    -2.555055380000     0.046076810000    12.000000000000
      Gh(C)           4.017714680000    -4.384104900000    -0.887618630000    12.000000000000
         N          -28.155575580000   -21.386962500000   -17.610814360000    14.003074004430
         N          -28.036713320000   -19.349055460000   -19.147988080000    14.003074004430
         H          -25.482412840000   -23.787872470000   -16.892784000000     1.007825032230
         H          -22.587776290000   -21.345333720000   -19.647921510000     1.007825032230
         H          -25.524200360000   -17.632284710000   -21.552557820000     1.007825032230
         H          -29.499121530000   -18.539078410000   -19.533753400000     1.007825032230
         C          -25.753876920000   -19.018879800000   -20.177036930000    12.000000000000
         C          -24.270884480000   -20.948552010000   -19.287114460000    12.000000000000
         C          -25.832189810000   -22.333719820000   -17.695416510000    12.000000000000

  Charge       = 0
  Multiplicity = 1
  Basis Set: AUG-CC-PVDZ
    Blend: AUG-CC-PVDZ
  Basis Set: (AUG-CC-PVDZ AUX)
    Blend: AUG-CC-PVDZ-JKFIT

    Orbital Energies [Eh]
    ---------------------

    Doubly Occupied:

       1A    -15.636233     2A    -15.592291     3A    -11.279903
       4A    -11.237759     5A    -11.209884     6A     -1.387001
       7A     -1.121894     8A     -1.066928     9A     -0.872759
      10A     -0.837039    11A     -0.757272    12A     -0.645745
      13A     -0.620828    14A     -0.609177    15A     -0.583905
      16A     -0.461413    17A     -0.370715    18A     -0.346055

  @DF-RHF Final Energy:  -224.76243506201908

   => Energetics <=

    Nuclear Repulsion Energy =            166.6286028138702022
    One-Electron Energy =                -633.5084734132569793
    Two-Electron Energy =                 242.1174355373676974
    Total Energy =                       -224.7624350620190796

  Dipole Moment: [D]
     X:     0.7394      Y:     1.4336      Z:    -1.7871     Total:     2.4074

    SAPT Results
  --------------------------------------------------------------------------------------------------------
    Electrostatics                 -0.00328792 [mEh]      -0.00206320 [kcal/mol]      -0.00863244 [kJ/mol]
      Elst10,r                     -0.00328792 [mEh]      -0.00206320 [kcal/mol]      -0.00863244 [kJ/mol]

    Exchange                        0.00000000 [mEh]       0.00000000 [kcal/mol]       0.00000000 [kJ/mol]
      Exch10                        0.00000000 [mEh]       0.00000000 [kcal/mol]       0.00000000 [kJ/mol]
      Exch10(S^2)                   0.00000000 [mEh]       0.00000000 [kcal/mol]       0.00000000 [kJ/mol]

    Induction                       0.00006751 [mEh]       0.00004236 [kcal/mol]       0.00017725 [kJ/mol]
      Ind20,r                      -0.00000596 [mEh]      -0.00000374 [kcal/mol]      -0.00001565 [kJ/mol]
      Exch-Ind20,r                  0.00000000 [mEh]       0.00000000 [kcal/mol]       0.00000000 [kJ/mol]
      delta HF,r (2)                0.00007347 [mEh]       0.00004610 [kcal/mol]       0.00019290 [kJ/mol]

    Dispersion                     -0.00026710 [mEh]      -0.00016761 [kcal/mol]      -0.00070127 [kJ/mol]
      Disp20                       -0.00026710 [mEh]      -0.00016761 [kcal/mol]      -0.00070127 [kJ/mol]
      Exch-Disp20                   0.00000000 [mEh]       0.00000000 [kcal/mol]       0.00000000 [kJ/mol]
      Disp20 (SS)                  -0.00013355 [mEh]      -0.00008380 [kcal/mol]      -0.00035064 [kJ/mol]
      Disp20 (OS)                  -0.00013355 [mEh]      -0.00008380 [kcal/mol]      -0.00035064 [kJ/mol]
      Exch-Disp20 (SS)              0.00000000 [mEh]       0.00000000 [kcal/mol]       0.00000000 [kJ/mol]
      Exch-Disp20 (OS)              0.00000000 [mEh]       0.00000000 [kcal/mol]       0.00000000 [kJ/mol]

  Total HF                         -0.00322041 [mEh]      -0.00202084 [kcal/mol]      -0.00845519 [kJ/mol]
  Total SAPT0                      -0.00348751 [mEh]      -0.00218845 [kcal/mol]      -0.00915646 [kJ/mol]

  Special recipe for scaled SAPT0 (see Manual):
    Electrostatics sSAPT0          -0.00328792 [mEh]      -0.00206320 [kcal/mol]      -0.00863244 [kJ/mol]
    Exchange sSAPT0                 0.00000000 [mEh]       0.00000000 [kcal/mol]       0.00000000 [kJ/mol]
    Induction sSAPT0                0.00006751 [mEh]       0.00004236 [kcal/mol]       0.00017725 [kJ/mol]
    Dispersion sSAPT0              -0.00026710 [mEh]      -0.00016761 [kcal/mol]      -0.00070127 [kJ/mol]
  Total sSAPT0                     -0.00348751 [mEh]      -0.00218845 [kcal/mol]      -0.00915646 [kJ/mol]
  --------------------------------------------------------------------------------------------------------

*** Psi4 exiting successfully. Buy a developer a beer!
