                               Psi4 1.4rc3

  ==> Input File <==

--------------------------------------------------------------------------
# PSI4 file produced by CrystaLattE

# Generated from:               pyrazole.xyz
# Psithon input for N-mer:      2mer-0+185
# Number of atoms per monomer:  [9, 9]
# Number of replicas:           1
# COM priority:                 2.708931393563e-05
# Minimum COM separations:      17.620
# Separation priority:          5.610010396911e-05
# Minimum monomer separations:  13.823
# Cutoff priority:              2.147590898900e-06
# Nuclear repulsion energy:     372.31350994437594

memory 7 GB

molecule Dimer_0_185 {
  N            6.27981210      -4.25303372       0.19313865
  N            6.06870777      -2.28125697       1.80544317
  H            3.66871156      -5.64628941      -1.96684001
  H            0.69034521      -2.37545694      -0.42864236
  H            3.35917442       0.17650601       3.09265017
  H            7.35266782      -1.99461311       2.90680702
  C            3.77952586      -1.21508453       1.76858172
  C            2.38242998      -2.55505538       0.04607681
  C            4.01771468      -4.38410490      -0.88761863
--
  N          -28.15557558     -14.18732502       1.58785821
  N          -28.03671332     -16.22523205       0.05068450
  H          -25.48241284     -11.78641505       2.30588857
  H          -22.58777629     -14.22895380      -0.44924894
  H          -25.52420036     -17.94200281      -2.35388525
  H          -29.49912153     -17.03520911      -0.33508083
  C          -25.75387692     -16.55540772      -0.97836435
  C          -24.27088448     -14.62573551      -0.08844188
  C          -25.83218981     -13.24056769       1.50325606
units = au
no_com
no_reorient
}

set {
  e_convergence 10
  d_convergence 10
  scf_type df
  mp2_type df
  cc_type df
  freeze_core true
}

energy('sapt0/aug-cc-pvdz')

--------------------------------------------------------------------------

  //              Dimer HF             //
    Molecular point group: c1
  Charge       = 0
  Multiplicity = 1
  Basis Set: AUG-CC-PVDZ
    Blend: AUG-CC-PVDZ
  Basis Set: (AUG-CC-PVDZ AUX)
    Blend: AUG-CC-PVDZ-JKFIT
  @DF-RHF Final Energy:  -449.52478345927881
    Total Energy =                       -449.5247834592788649
  //            Monomer A HF           //
    Molecular point group: c1
  Multiplicity = 1
  Basis Set: AUG-CC-PVDZ
    Blend: AUG-CC-PVDZ
  Basis Set: (AUG-CC-PVDZ AUX)
    Blend: AUG-CC-PVDZ-JKFIT
  @DF-RHF Final Energy:  -224.76233952076919
    Total Energy =                       -224.7623395207691885
  //            Monomer B HF           //
    Molecular point group: c1

    Geometry (in Bohr), charge = 0, multiplicity = 1:

       Center              X                  Y                   Z               Mass
    ------------   -----------------  -----------------  -----------------  -----------------
      Gh(N)           6.279812100000    -4.253033720000     0.193138650000    14.003074004430
      Gh(N)           6.068707770000    -2.281256970000     1.805443170000    14.003074004430
      Gh(H)           3.668711560000    -5.646289410000    -1.966840010000     1.007825032230
      Gh(H)           0.690345210000    -2.375456940000    -0.428642360000     1.007825032230
      Gh(H)           3.359174420000     0.176506010000     3.092650170000     1.007825032230
      Gh(H)           7.352667820000    -1.994613110000     2.906807020000     1.007825032230
      Gh(C)           3.779525860000    -1.215084530000     1.768581720000    12.000000000000
      Gh(C)           2.382429980000    -2.555055380000     0.046076810000    12.000000000000
      Gh(C)           4.017714680000    -4.384104900000    -0.887618630000    12.000000000000
         N          -28.155575580000   -14.187325020000     1.587858210000    14.003074004430
         N          -28.036713320000   -16.225232050000     0.050684500000    14.003074004430
         H          -25.482412840000   -11.786415050000     2.305888570000     1.007825032230
         H          -22.587776290000   -14.228953800000    -0.449248940000     1.007825032230
         H          -25.524200360000   -17.942002810000    -2.353885250000     1.007825032230
         H          -29.499121530000   -17.035209110000    -0.335080830000     1.007825032230
         C          -25.753876920000   -16.555407720000    -0.978364350000    12.000000000000
         C          -24.270884480000   -14.625735510000    -0.088441880000    12.000000000000
         C          -25.832189810000   -13.240567690000     1.503256060000    12.000000000000

  Charge       = 0
  Multiplicity = 1
  Basis Set: AUG-CC-PVDZ
    Blend: AUG-CC-PVDZ
  Basis Set: (AUG-CC-PVDZ AUX)
    Blend: AUG-CC-PVDZ-JKFIT

    Orbital Energies [Eh]
    ---------------------

    Doubly Occupied:

       1A    -15.636233     2A    -15.592291     3A    -11.279903
       4A    -11.237759     5A    -11.209884     6A     -1.387001
       7A     -1.121894     8A     -1.066928     9A     -0.872759
      10A     -0.837039    11A     -0.757272    12A     -0.645745
      13A     -0.620828    14A     -0.609177    15A     -0.583905
      16A     -0.461413    17A     -0.370715    18A     -0.346055

  @DF-RHF Final Energy:  -224.76243506238981

   => Energetics <=

    Nuclear Repulsion Energy =            166.6286029116538714
    One-Electron Energy =                -633.5084736116983777
    Two-Electron Energy =                 242.1174356376547223
    Total Energy =                       -224.7624350623898124

  Dipole Moment: [D]
     X:     0.7394      Y:    -1.4336      Z:    -1.7871     Total:     2.4074

    SAPT Results
  --------------------------------------------------------------------------------------------------------
    Electrostatics                 -0.00894442 [mEh]      -0.00561271 [kcal/mol]      -0.02348358 [kJ/mol]
      Elst10,r                     -0.00894442 [mEh]      -0.00561271 [kcal/mol]      -0.02348358 [kJ/mol]

    Exchange                        0.00000000 [mEh]       0.00000000 [kcal/mol]       0.00000000 [kJ/mol]
      Exch10                        0.00000000 [mEh]       0.00000000 [kcal/mol]       0.00000000 [kJ/mol]
      Exch10(S^2)                   0.00000000 [mEh]       0.00000000 [kcal/mol]       0.00000000 [kJ/mol]

    Induction                       0.00006830 [mEh]       0.00004286 [kcal/mol]       0.00017933 [kJ/mol]
      Ind20,r                      -0.00002400 [mEh]      -0.00001506 [kcal/mol]      -0.00006302 [kJ/mol]
      Exch-Ind20,r                  0.00000000 [mEh]       0.00000000 [kcal/mol]       0.00000001 [kJ/mol]
      delta HF,r (2)                0.00009230 [mEh]       0.00005792 [kcal/mol]       0.00024234 [kJ/mol]

    Dispersion                     -0.00100758 [mEh]      -0.00063226 [kcal/mol]      -0.00264539 [kJ/mol]
      Disp20                       -0.00100758 [mEh]      -0.00063226 [kcal/mol]      -0.00264539 [kJ/mol]
      Exch-Disp20                   0.00000000 [mEh]       0.00000000 [kcal/mol]       0.00000000 [kJ/mol]
      Disp20 (SS)                  -0.00050379 [mEh]      -0.00031613 [kcal/mol]      -0.00132270 [kJ/mol]
      Disp20 (OS)                  -0.00050379 [mEh]      -0.00031613 [kcal/mol]      -0.00132270 [kJ/mol]
      Exch-Disp20 (SS)              0.00000000 [mEh]       0.00000000 [kcal/mol]       0.00000000 [kJ/mol]
      Exch-Disp20 (OS)              0.00000000 [mEh]       0.00000000 [kcal/mol]       0.00000000 [kJ/mol]

  Total HF                         -0.00887612 [mEh]      -0.00556985 [kcal/mol]      -0.02330425 [kJ/mol]
  Total SAPT0                      -0.00988370 [mEh]      -0.00620211 [kcal/mol]      -0.02594964 [kJ/mol]

  Special recipe for scaled SAPT0 (see Manual):
    Electrostatics sSAPT0          -0.00894442 [mEh]      -0.00561271 [kcal/mol]      -0.02348358 [kJ/mol]
    Exchange sSAPT0                 0.00000000 [mEh]       0.00000000 [kcal/mol]       0.00000000 [kJ/mol]
    Induction sSAPT0                0.00006830 [mEh]       0.00004286 [kcal/mol]       0.00017933 [kJ/mol]
    Dispersion sSAPT0              -0.00100758 [mEh]      -0.00063226 [kcal/mol]      -0.00264539 [kJ/mol]
  Total sSAPT0                     -0.00988370 [mEh]      -0.00620211 [kcal/mol]      -0.02594964 [kJ/mol]
  --------------------------------------------------------------------------------------------------------

*** Psi4 exiting successfully. Buy a developer a beer!
