                               Psi4 1.4rc3

  ==> Input File <==

--------------------------------------------------------------------------
# PSI4 file produced by CrystaLattE

# Generated from:               pyrazole.xyz
# Psithon input for N-mer:      2mer-0+59
# Number of atoms per monomer:  [9, 9]
# Number of replicas:           1
# COM priority:                 1.324402807038e-04
# Minimum COM separations:      10.382
# Separation priority:          2.471890532290e-04
# Minimum monomer separations:  8.432
# Cutoff priority:              1.551335195251e-05
# Nuclear repulsion energy:     398.9925423102714

memory 7 GB

molecule Dimer_0_59 {
  N            6.27981210      -4.25303372       0.19313865
  N            6.06870777      -2.28125697       1.80544317
  H            3.66871156      -5.64628941      -1.96684001
  H            0.69034521      -2.37545694      -0.42864236
  H            3.35917442       0.17650601       3.09265017
  H            7.35266782      -1.99461311       2.90680702
  C            3.77952586      -1.21508453       1.76858172
  C            2.38242998      -2.55505538       0.04607681
  C            4.01771468      -4.38410490      -0.88761863
--
  N           10.53656684      14.29484620      -1.54178140
  N           10.65542910      16.33275324      -0.00460768
  H           13.20972957      11.89393623      -2.25981175
  H           16.10436613      14.33647498       0.49532575
  H           13.16794206      18.04952399       2.39996206
  H            9.19302089      17.14273029       0.38115765
  C           12.93826550      16.66292891       1.02444117
  C           14.42125794      14.73325669       0.13451870
  C           12.85995261      13.34808888      -1.45717925
units = au
no_com
no_reorient
}

set {
  e_convergence 10
  d_convergence 10
  scf_type df
  mp2_type df
  cc_type df
  freeze_core true
}

energy('sapt0/aug-cc-pvdz')

--------------------------------------------------------------------------

  //              Dimer HF             //
    Molecular point group: c1
  Charge       = 0
  Multiplicity = 1
  Basis Set: AUG-CC-PVDZ
    Blend: AUG-CC-PVDZ
  Basis Set: (AUG-CC-PVDZ AUX)
    Blend: AUG-CC-PVDZ-JKFIT
  @DF-RHF Final Energy:  -449.52480337989459
    Total Energy =                       -449.5248033798945926
  //            Monomer A HF           //
    Molecular point group: c1
  Multiplicity = 1
  Basis Set: AUG-CC-PVDZ
    Blend: AUG-CC-PVDZ
  Basis Set: (AUG-CC-PVDZ AUX)
    Blend: AUG-CC-PVDZ-JKFIT
  @DF-RHF Final Energy:  -224.76234329217570
    Total Energy =                       -224.7623432921757001
  //            Monomer B HF           //
    Molecular point group: c1

    Geometry (in Bohr), charge = 0, multiplicity = 1:

       Center              X                  Y                   Z               Mass
    ------------   -----------------  -----------------  -----------------  -----------------
      Gh(N)           6.279812100000    -4.253033720000     0.193138650000    14.003074004430
      Gh(N)           6.068707770000    -2.281256970000     1.805443170000    14.003074004430
      Gh(H)           3.668711560000    -5.646289410000    -1.966840010000     1.007825032230
      Gh(H)           0.690345210000    -2.375456940000    -0.428642360000     1.007825032230
      Gh(H)           3.359174420000     0.176506010000     3.092650170000     1.007825032230
      Gh(H)           7.352667820000    -1.994613110000     2.906807020000     1.007825032230
      Gh(C)           3.779525860000    -1.215084530000     1.768581720000    12.000000000000
      Gh(C)           2.382429980000    -2.555055380000     0.046076810000    12.000000000000
      Gh(C)           4.017714680000    -4.384104900000    -0.887618630000    12.000000000000
         N           10.536566840000    14.294846200000    -1.541781400000    14.003074004430
         N           10.655429100000    16.332753240000    -0.004607680000    14.003074004430
         H           13.209729570000    11.893936230000    -2.259811750000     1.007825032230
         H           16.104366130000    14.336474980000     0.495325750000     1.007825032230
         H           13.167942060000    18.049523990000     2.399962060000     1.007825032230
         H            9.193020890000    17.142730290000     0.381157650000     1.007825032230
         C           12.938265500000    16.662928910000     1.024441170000    12.000000000000
         C           14.421257940000    14.733256690000     0.134518700000    12.000000000000
         C           12.859952610000    13.348088880000    -1.457179250000    12.000000000000

  Charge       = 0
  Multiplicity = 1
  Basis Set: AUG-CC-PVDZ
    Blend: AUG-CC-PVDZ
  Basis Set: (AUG-CC-PVDZ AUX)
    Blend: AUG-CC-PVDZ-JKFIT

    Orbital Energies [Eh]
    ---------------------

    Doubly Occupied:

       1A    -15.636233     2A    -15.592292     3A    -11.279903
       4A    -11.237755     5A    -11.209884     6A     -1.387001
       7A     -1.121893     8A     -1.066928     9A     -0.872759
      10A     -0.837039    11A     -0.757272    12A     -0.645745
      13A     -0.620828    14A     -0.609177    15A     -0.583906
      16A     -0.461413    17A     -0.370715    18A     -0.346055

  @DF-RHF Final Energy:  -224.76243976840993

   => Energetics <=

    Nuclear Repulsion Energy =            166.6286027587561875
    One-Electron Energy =                -633.5084873517154165
    Two-Electron Energy =                 242.1174448245492954
    Total Energy =                       -224.7624397684099335

  Dipole Moment: [D]
     X:     0.7394      Y:     1.4336      Z:     1.7872     Total:     2.4075

    SAPT Results
  --------------------------------------------------------------------------------------------------------
    Electrostatics                 -0.01904167 [mEh]      -0.01194883 [kcal/mol]      -0.04999389 [kJ/mol]
      Elst10,r                     -0.01904167 [mEh]      -0.01194883 [kcal/mol]      -0.04999389 [kJ/mol]

    Exchange                        0.00000007 [mEh]       0.00000005 [kcal/mol]       0.00000020 [kJ/mol]
      Exch10                        0.00000007 [mEh]       0.00000005 [kcal/mol]       0.00000020 [kJ/mol]
      Exch10(S^2)                   0.00000007 [mEh]       0.00000005 [kcal/mol]       0.00000020 [kJ/mol]

    Induction                      -0.00127772 [mEh]      -0.00080178 [kcal/mol]      -0.00335464 [kJ/mol]
      Ind20,r                      -0.00146531 [mEh]      -0.00091950 [kcal/mol]      -0.00384718 [kJ/mol]
      Exch-Ind20,r                  0.00000475 [mEh]       0.00000298 [kcal/mol]       0.00001247 [kJ/mol]
      delta HF,r (2)                0.00018285 [mEh]       0.00011474 [kcal/mol]       0.00048007 [kJ/mol]

    Dispersion                     -0.02059815 [mEh]      -0.01292553 [kcal/mol]      -0.05408043 [kJ/mol]
      Disp20                       -0.02059887 [mEh]      -0.01292599 [kcal/mol]      -0.05408233 [kJ/mol]
      Exch-Disp20                   0.00000072 [mEh]       0.00000045 [kcal/mol]       0.00000190 [kJ/mol]
      Disp20 (SS)                  -0.01029944 [mEh]      -0.00646299 [kcal/mol]      -0.02704116 [kJ/mol]
      Disp20 (OS)                  -0.01029944 [mEh]      -0.00646299 [kcal/mol]      -0.02704116 [kJ/mol]
      Exch-Disp20 (SS)              0.00000062 [mEh]       0.00000039 [kcal/mol]       0.00000163 [kJ/mol]
      Exch-Disp20 (OS)              0.00000010 [mEh]       0.00000006 [kcal/mol]       0.00000026 [kJ/mol]

  Total HF                         -0.02031931 [mEh]      -0.01275056 [kcal/mol]      -0.05334834 [kJ/mol]
  Total SAPT0                      -0.04091746 [mEh]      -0.02567609 [kcal/mol]      -0.10742877 [kJ/mol]

  Special recipe for scaled SAPT0 (see Manual):
    Electrostatics sSAPT0          -0.01904167 [mEh]      -0.01194883 [kcal/mol]      -0.04999389 [kJ/mol]
    Exchange sSAPT0                 0.00000007 [mEh]       0.00000005 [kcal/mol]       0.00000020 [kJ/mol]
    Induction sSAPT0               -0.00127772 [mEh]      -0.00080178 [kcal/mol]      -0.00335464 [kJ/mol]
    Dispersion sSAPT0              -0.02059815 [mEh]      -0.01292553 [kcal/mol]      -0.05408043 [kJ/mol]
  Total sSAPT0                     -0.04091746 [mEh]      -0.02567609 [kcal/mol]      -0.10742877 [kJ/mol]
  --------------------------------------------------------------------------------------------------------

*** Psi4 exiting successfully. Buy a developer a beer!
