                               Psi4 1.4rc3

  ==> Input File <==

--------------------------------------------------------------------------
# PSI4 file produced by CrystaLattE

# Generated from:               pyrazole.xyz
# Psithon input for N-mer:      2mer-0+138
# Number of atoms per monomer:  [9, 9]
# Number of replicas:           2
# COM priority:                 3.433665914109e-05
# Minimum COM separations:      16.281
# Separation priority:          6.009127267390e-05
# Minimum monomer separations:  13.510
# Cutoff priority:              2.353686064705e-06
# Nuclear repulsion energy:     375.40412449493306

memory 7 GB

molecule Dimer_0_138 {
  N            6.27981210      -4.25303372       0.19313865
  N            6.06870777      -2.28125697       1.80544317
  H            3.66871156      -5.64628941      -1.96684001
  H            0.69034521      -2.37545694      -0.42864236
  H            3.35917442       0.17650601       3.09265017
  H            7.35266782      -1.99461311       2.90680702
  C            3.77952586      -1.21508453       1.76858172
  C            2.38242998      -2.55505538       0.04607681
  C            4.01771468      -4.38410490      -0.88761863
--
  N           -1.45861638      28.14842737      -0.14706183
  N           -1.66972071      26.17665062      -1.75936635
  H           -4.06971692      29.54168306       2.01291682
  H           -7.04808328      26.27085060       0.47471918
  H           -4.37925406      23.71888764      -3.04657335
  H           -0.38576066      25.89000676      -2.86073020
  C           -3.95890263      25.11047818      -1.72250490
  C           -5.35599851      26.45044903       0.00000000
  C           -3.72071380      28.27949855       0.93369544
units = au
no_com
no_reorient
}

set {
  e_convergence 10
  d_convergence 10
  scf_type df
  mp2_type df
  cc_type df
  freeze_core true
}

energy('sapt0/aug-cc-pvdz')

--------------------------------------------------------------------------

  //              Dimer HF             //
    Molecular point group: c1
  Charge       = 0
  Multiplicity = 1
  Basis Set: AUG-CC-PVDZ
    Blend: AUG-CC-PVDZ
  Basis Set: (AUG-CC-PVDZ AUX)
    Blend: AUG-CC-PVDZ-JKFIT
  @DF-RHF Final Energy:  -449.52468646938945
    Total Energy =                       -449.5246864693893940
  //            Monomer A HF           //
    Molecular point group: c1
  Multiplicity = 1
  Basis Set: AUG-CC-PVDZ
    Blend: AUG-CC-PVDZ
  Basis Set: (AUG-CC-PVDZ AUX)
    Blend: AUG-CC-PVDZ-JKFIT
  @DF-RHF Final Energy:  -224.76233952307484
    Total Energy =                       -224.7623395230748429
  //            Monomer B HF           //
    Molecular point group: c1

    Geometry (in Bohr), charge = 0, multiplicity = 1:

       Center              X                  Y                   Z               Mass
    ------------   -----------------  -----------------  -----------------  -----------------
      Gh(N)           6.279812100000    -4.253033720000     0.193138650000    14.003074004430
      Gh(N)           6.068707770000    -2.281256970000     1.805443170000    14.003074004430
      Gh(H)           3.668711560000    -5.646289410000    -1.966840010000     1.007825032230
      Gh(H)           0.690345210000    -2.375456940000    -0.428642360000     1.007825032230
      Gh(H)           3.359174420000     0.176506010000     3.092650170000     1.007825032230
      Gh(H)           7.352667820000    -1.994613110000     2.906807020000     1.007825032230
      Gh(C)           3.779525860000    -1.215084530000     1.768581720000    12.000000000000
      Gh(C)           2.382429980000    -2.555055380000     0.046076810000    12.000000000000
      Gh(C)           4.017714680000    -4.384104900000    -0.887618630000    12.000000000000
         N           -1.458616380000    28.148427370000    -0.147061830000    14.003074004430
         N           -1.669720710000    26.176650620000    -1.759366350000    14.003074004430
         H           -4.069716920000    29.541683060000     2.012916820000     1.007825032230
         H           -7.048083280000    26.270850600000     0.474719180000     1.007825032230
         H           -4.379254060000    23.718887640000    -3.046573350000     1.007825032230
         H           -0.385760660000    25.890006760000    -2.860730200000     1.007825032230
         C           -3.958902630000    25.110478180000    -1.722504900000    12.000000000000
         C           -5.355998510000    26.450449030000     0.000000000000    12.000000000000
         C           -3.720713800000    28.279498550000     0.933695440000    12.000000000000

  Charge       = 0
  Multiplicity = 1
  Basis Set: AUG-CC-PVDZ
    Blend: AUG-CC-PVDZ
  Basis Set: (AUG-CC-PVDZ AUX)
    Blend: AUG-CC-PVDZ-JKFIT

    Orbital Energies [Eh]
    ---------------------

    Doubly Occupied:

       1A    -15.636223     2A    -15.592313     3A    -11.279894
       4A    -11.237784     5A    -11.209891     6A     -1.386922
       7A     -1.121901     8A     -1.066898     9A     -0.872768
      10A     -0.837061    11A     -0.757292    12A     -0.645746
      13A     -0.620834    14A     -0.609140    15A     -0.583920
      16A     -0.461404    17A     -0.370721    18A     -0.346048

  @DF-RHF Final Energy:  -224.76233952403805

   => Energetics <=

    Nuclear Repulsion Energy =            166.6240564053294690
    One-Electron Energy =                -633.4992733174351542
    Two-Electron Energy =                 242.1128773880676022
    Total Energy =                       -224.7623395240380546

  Dipole Moment: [D]
     X:    -1.0235      Y:    -1.6055      Z:    -1.4733     Total:     2.4075

    SAPT Results
  --------------------------------------------------------------------------------------------------------
    Electrostatics                 -0.00743135 [mEh]      -0.00466325 [kcal/mol]      -0.01951102 [kJ/mol]
      Elst10,r                     -0.00743135 [mEh]      -0.00466325 [kcal/mol]      -0.01951102 [kJ/mol]

    Exchange                        0.00000000 [mEh]       0.00000000 [kcal/mol]       0.00000000 [kJ/mol]
      Exch10                        0.00000000 [mEh]       0.00000000 [kcal/mol]       0.00000000 [kJ/mol]
      Exch10(S^2)                   0.00000000 [mEh]       0.00000000 [kcal/mol]       0.00000000 [kJ/mol]

    Induction                       0.00000908 [mEh]       0.00000570 [kcal/mol]       0.00002383 [kJ/mol]
      Ind20,r                      -0.00008667 [mEh]      -0.00005438 [kcal/mol]      -0.00022754 [kJ/mol]
      Exch-Ind20,r                  0.00000000 [mEh]       0.00000000 [kcal/mol]       0.00000000 [kJ/mol]
      delta HF,r (2)                0.00009574 [mEh]       0.00006008 [kcal/mol]       0.00025137 [kJ/mol]

    Dispersion                     -0.00141246 [mEh]      -0.00088633 [kcal/mol]      -0.00370841 [kJ/mol]
      Disp20                       -0.00141246 [mEh]      -0.00088633 [kcal/mol]      -0.00370841 [kJ/mol]
      Exch-Disp20                   0.00000000 [mEh]       0.00000000 [kcal/mol]       0.00000000 [kJ/mol]
      Disp20 (SS)                  -0.00070623 [mEh]      -0.00044317 [kcal/mol]      -0.00185420 [kJ/mol]
      Disp20 (OS)                  -0.00070623 [mEh]      -0.00044317 [kcal/mol]      -0.00185420 [kJ/mol]
      Exch-Disp20 (SS)              0.00000000 [mEh]       0.00000000 [kcal/mol]       0.00000000 [kJ/mol]
      Exch-Disp20 (OS)              0.00000000 [mEh]       0.00000000 [kcal/mol]       0.00000000 [kJ/mol]

  Total HF                         -0.00742228 [mEh]      -0.00465755 [kcal/mol]      -0.01948718 [kJ/mol]
  Total SAPT0                      -0.00883473 [mEh]      -0.00554388 [kcal/mol]      -0.02319559 [kJ/mol]

  Special recipe for scaled SAPT0 (see Manual):
    Electrostatics sSAPT0          -0.00743135 [mEh]      -0.00466325 [kcal/mol]      -0.01951102 [kJ/mol]
    Exchange sSAPT0                 0.00000000 [mEh]       0.00000000 [kcal/mol]       0.00000000 [kJ/mol]
    Induction sSAPT0                0.00000908 [mEh]       0.00000570 [kcal/mol]       0.00002383 [kJ/mol]
    Dispersion sSAPT0              -0.00141246 [mEh]      -0.00088633 [kcal/mol]      -0.00370841 [kJ/mol]
  Total sSAPT0                     -0.00883473 [mEh]      -0.00554388 [kcal/mol]      -0.02319559 [kJ/mol]
  --------------------------------------------------------------------------------------------------------

*** Psi4 exiting successfully. Buy a developer a beer!
