                               Psi4 1.4rc3

  ==> Input File <==

--------------------------------------------------------------------------
# PSI4 file produced by CrystaLattE

# Generated from:               pyrazole.xyz
# Psithon input for N-mer:      2mer-0+2
# Number of atoms per monomer:  [9, 9]
# Number of replicas:           1
# COM priority:                 1.162423342399e-03
# Minimum COM separations:      5.033
# Separation priority:          6.668210841932e-03
# Minimum monomer separations:  2.811
# Cutoff priority:              1.255102220016e-03
# Nuclear repulsion energy:     468.57747558140574

memory 7 GB

molecule Dimer_0_2 {
  N            6.27981210      -4.25303372       0.19313865
  N            6.06870777      -2.28125697       1.80544317
  H            3.66871156      -5.64628941      -1.96684001
  H            0.69034521      -2.37545694      -0.42864236
  H            3.35917442       0.17650601       3.09265017
  H            7.35266782      -1.99461311       2.90680702
  C            3.77952586      -1.21508453       1.76858172
  C            2.38242998      -2.55505538       0.04607681
  C            4.01771468      -4.38410490      -0.88761863
--
  N           -4.94029013      -2.29338878       4.85777613
  N           -4.82142787      -4.33129582       6.39494984
  H           -2.26712739       0.10752118       4.13974577
  H            0.62750917      -2.33501756       6.89488328
  H           -2.30891491      -6.04806657       8.79951959
  H           -6.28383608      -5.14127288       6.78071517
  C           -2.53859146      -4.66147149       7.42399869
  C           -1.05559903      -2.73179927       6.53407622
  C           -2.61690436      -1.34663146       4.94237828
units = au
no_com
no_reorient
}

set {
  e_convergence 10
  d_convergence 10
  scf_type df
  mp2_type df
  cc_type df
  freeze_core true
}

energy('sapt0/aug-cc-pvdz')

--------------------------------------------------------------------------

  //              Dimer HF             //
    Molecular point group: c1
  Charge       = 0
  Multiplicity = 1
  Basis Set: AUG-CC-PVDZ
    Blend: AUG-CC-PVDZ
  Basis Set: (AUG-CC-PVDZ AUX)
    Blend: AUG-CC-PVDZ-JKFIT
  @DF-RHF Final Energy:  -449.52341431841000
    Total Energy =                       -449.5234143184100049
  //            Monomer A HF           //
    Molecular point group: c1
  Multiplicity = 1
  Basis Set: AUG-CC-PVDZ
    Blend: AUG-CC-PVDZ
  Basis Set: (AUG-CC-PVDZ AUX)
    Blend: AUG-CC-PVDZ-JKFIT
  @DF-RHF Final Energy:  -224.76277546462524
    Total Energy =                       -224.7627754646252356
  //            Monomer B HF           //
    Molecular point group: c1

    Geometry (in Bohr), charge = 0, multiplicity = 1:

       Center              X                  Y                   Z               Mass
    ------------   -----------------  -----------------  -----------------  -----------------
      Gh(N)           6.279812100000    -4.253033720000     0.193138650000    14.003074004430
      Gh(N)           6.068707770000    -2.281256970000     1.805443170000    14.003074004430
      Gh(H)           3.668711560000    -5.646289410000    -1.966840010000     1.007825032230
      Gh(H)           0.690345210000    -2.375456940000    -0.428642360000     1.007825032230
      Gh(H)           3.359174420000     0.176506010000     3.092650170000     1.007825032230
      Gh(H)           7.352667820000    -1.994613110000     2.906807020000     1.007825032230
      Gh(C)           3.779525860000    -1.215084530000     1.768581720000    12.000000000000
      Gh(C)           2.382429980000    -2.555055380000     0.046076810000    12.000000000000
      Gh(C)           4.017714680000    -4.384104900000    -0.887618630000    12.000000000000
         N           -4.940290130000    -2.293388780000     4.857776130000    14.003074004430
         N           -4.821427870000    -4.331295820000     6.394949840000    14.003074004430
         H           -2.267127390000     0.107521180000     4.139745770000     1.007825032230
         H            0.627509170000    -2.335017560000     6.894883280000     1.007825032230
         H           -2.308914910000    -6.048066570000     8.799519590000     1.007825032230
         H           -6.283836080000    -5.141272880000     6.780715170000     1.007825032230
         C           -2.538591460000    -4.661471490000     7.423998690000    12.000000000000
         C           -1.055599030000    -2.731799270000     6.534076220000    12.000000000000
         C           -2.616904360000    -1.346631460000     4.942378280000    12.000000000000

  Charge       = 0
  Multiplicity = 1
  Basis Set: AUG-CC-PVDZ
    Blend: AUG-CC-PVDZ
  Basis Set: (AUG-CC-PVDZ AUX)
    Blend: AUG-CC-PVDZ-JKFIT

    Orbital Energies [Eh]
    ---------------------

    Doubly Occupied:

       1A    -15.636224     2A    -15.592307     3A    -11.279853
       4A    -11.237626     5A    -11.209742     6A     -1.386962
       7A     -1.121851     8A     -1.066878     9A     -0.872729
      10A     -0.836984    11A     -0.757234    12A     -0.645728
      13A     -0.620779    14A     -0.609161    15A     -0.583848
      16A     -0.461365    17A     -0.370702    18A     -0.346038

  @DF-RHF Final Energy:  -224.76289794892634

   => Energetics <=

    Nuclear Repulsion Energy =            166.6286027853672067
    One-Electron Energy =                -633.5109821958235443
    Two-Electron Energy =                 242.1194814615300004
    Total Energy =                       -224.7628979489263372

  Dipole Moment: [D]
     X:     0.7383      Y:    -1.4345      Z:     1.7879     Total:     2.4082

    SAPT Results
  --------------------------------------------------------------------------------------------------------
    Electrostatics                 -0.14364995 [mEh]      -0.09014170 [kcal/mol]      -0.37715288 [kJ/mol]
      Elst10,r                     -0.14364995 [mEh]      -0.09014170 [kcal/mol]      -0.37715288 [kJ/mol]

    Exchange                        2.70109734 [mEh]       1.69496417 [kcal/mol]       7.09173008 [kJ/mol]
      Exch10                        2.70109734 [mEh]       1.69496417 [kcal/mol]       7.09173008 [kJ/mol]
      Exch10(S^2)                   2.69436487 [mEh]       1.69073948 [kcal/mol]       7.07405399 [kJ/mol]

    Induction                      -0.29835225 [mEh]      -0.18721886 [kcal/mol]      -0.78332372 [kJ/mol]
      Ind20,r                      -1.17535989 [mEh]      -0.73754947 [kcal/mol]      -3.08590697 [kJ/mol]
      Exch-Ind20,r                  1.07196625 [mEh]       0.67266898 [kcal/mol]       2.81444700 [kJ/mol]
      delta HF,r (2)               -0.19495861 [mEh]      -0.12233837 [kcal/mol]      -0.51186375 [kJ/mol]

    Dispersion                     -3.64910555 [mEh]      -2.28984830 [kcal/mol]      -9.58072530 [kJ/mol]
      Disp20                       -4.05203355 [mEh]      -2.54268944 [kcal/mol]     -10.63861263 [kJ/mol]
      Exch-Disp20                   0.40292800 [mEh]       0.25284114 [kcal/mol]       1.05788732 [kJ/mol]
      Disp20 (SS)                  -2.02601678 [mEh]      -1.27134472 [kcal/mol]      -5.31930631 [kJ/mol]
      Disp20 (OS)                  -2.02601678 [mEh]      -1.27134472 [kcal/mol]      -5.31930631 [kJ/mol]
      Exch-Disp20 (SS)              0.26023446 [mEh]       0.16329959 [kcal/mol]       0.68324549 [kJ/mol]
      Exch-Disp20 (OS)              0.14269354 [mEh]       0.08954155 [kcal/mol]       0.37464183 [kJ/mol]

  Total HF                          2.25909514 [mEh]       1.41760360 [kcal/mol]       5.93125348 [kJ/mol]
  Total SAPT0                      -1.39001041 [mEh]      -0.87224470 [kcal/mol]      -3.64947183 [kJ/mol]

  Special recipe for scaled SAPT0 (see Manual):
    Electrostatics sSAPT0          -0.14364995 [mEh]      -0.09014170 [kcal/mol]      -0.37715288 [kJ/mol]
    Exchange sSAPT0                 2.70109734 [mEh]       1.69496417 [kcal/mol]       7.09173008 [kJ/mol]
    Induction sSAPT0               -0.29029652 [mEh]      -0.18216381 [kcal/mol]      -0.76217340 [kJ/mol]
    Dispersion sSAPT0              -3.64607758 [mEh]      -2.28794823 [kcal/mol]      -9.57277538 [kJ/mol]
  Total sSAPT0                     -1.37892671 [mEh]      -0.86528957 [kcal/mol]      -3.62037158 [kJ/mol]
  --------------------------------------------------------------------------------------------------------

*** Psi4 exiting successfully. Buy a developer a beer!
