                               Psi4 1.4rc3

  ==> Input File <==

--------------------------------------------------------------------------
# PSI4 file produced by CrystaLattE

# Generated from:               pyrazole.xyz
# Psithon input for N-mer:      2mer-0+461
# Number of atoms per monomer:  [9, 9]
# Number of replicas:           1
# COM priority:                 1.591474452763e-05
# Minimum COM separations:      21.038
# Separation priority:          2.204057734530e-05
# Minimum monomer separations:  18.874
# Cutoff priority:              6.179651094747e-07
# Nuclear repulsion energy:     365.83787039480484

memory 7 GB

molecule Dimer_0_461 {
  N            6.27981210      -4.25303372       0.19313865
  N            6.06870777      -2.28125697       1.80544317
  H            3.66871156      -5.64628941      -1.96684001
  H            0.69034521      -2.37545694      -0.42864236
  H            3.35917442       0.17650601       3.09265017
  H            7.35266782      -1.99461311       2.90680702
  C            3.77952586      -1.21508453       1.76858172
  C            2.38242998      -2.55505538       0.04607681
  C            4.01771468      -4.38410490      -0.88761863
--
  N           -4.94029013      21.49448368      30.45600622
  N           -4.82142787      19.45657665      31.99317994
  H           -2.26712739      23.89539365      29.73797587
  H            0.62750917      21.45285491      32.49311337
  H           -2.30891491      17.73980589      34.39774968
  H           -6.28383608      18.64659959      32.37894527
  C           -2.53859146      19.12640098      33.02222879
  C           -1.05559903      21.05607319      32.13230632
  C           -2.61690436      22.44124101      30.54060837
units = au
no_com
no_reorient
}

set {
  e_convergence 10
  d_convergence 10
  scf_type df
  mp2_type df
  cc_type df
  freeze_core true
}

energy('sapt0/aug-cc-pvdz')

--------------------------------------------------------------------------

  //              Dimer HF             //
    Molecular point group: c1
  Charge       = 0
  Multiplicity = 1
  Basis Set: AUG-CC-PVDZ
    Blend: AUG-CC-PVDZ
  Basis Set: (AUG-CC-PVDZ AUX)
    Blend: AUG-CC-PVDZ-JKFIT
  @DF-RHF Final Energy:  -449.52478697729072
    Total Energy =                       -449.5247869772907734
  //            Monomer A HF           //
    Molecular point group: c1
  Multiplicity = 1
  Basis Set: AUG-CC-PVDZ
    Blend: AUG-CC-PVDZ
  Basis Set: (AUG-CC-PVDZ AUX)
    Blend: AUG-CC-PVDZ-JKFIT
  @DF-RHF Final Energy:  -224.76233952084789
    Total Energy =                       -224.7623395208478883
  //            Monomer B HF           //
    Molecular point group: c1

    Geometry (in Bohr), charge = 0, multiplicity = 1:

       Center              X                  Y                   Z               Mass
    ------------   -----------------  -----------------  -----------------  -----------------
      Gh(N)           6.279812100000    -4.253033720000     0.193138650000    14.003074004430
      Gh(N)           6.068707770000    -2.281256970000     1.805443170000    14.003074004430
      Gh(H)           3.668711560000    -5.646289410000    -1.966840010000     1.007825032230
      Gh(H)           0.690345210000    -2.375456940000    -0.428642360000     1.007825032230
      Gh(H)           3.359174420000     0.176506010000     3.092650170000     1.007825032230
      Gh(H)           7.352667820000    -1.994613110000     2.906807020000     1.007825032230
      Gh(C)           3.779525860000    -1.215084530000     1.768581720000    12.000000000000
      Gh(C)           2.382429980000    -2.555055380000     0.046076810000    12.000000000000
      Gh(C)           4.017714680000    -4.384104900000    -0.887618630000    12.000000000000
         N           -4.940290130000    21.494483680000    30.456006220000    14.003074004430
         N           -4.821427870000    19.456576650000    31.993179940000    14.003074004430
         H           -2.267127390000    23.895393650000    29.737975870000     1.007825032230
         H            0.627509170000    21.452854910000    32.493113370000     1.007825032230
         H           -2.308914910000    17.739805890000    34.397749680000     1.007825032230
         H           -6.283836080000    18.646599590000    32.378945270000     1.007825032230
         C           -2.538591460000    19.126400980000    33.022228790000    12.000000000000
         C           -1.055599030000    21.056073190000    32.132306320000    12.000000000000
         C           -2.616904360000    22.441241010000    30.540608370000    12.000000000000

  Charge       = 0
  Multiplicity = 1
  Basis Set: AUG-CC-PVDZ
    Blend: AUG-CC-PVDZ
  Basis Set: (AUG-CC-PVDZ AUX)
    Blend: AUG-CC-PVDZ-JKFIT

    Orbital Energies [Eh]
    ---------------------

    Doubly Occupied:

       1A    -15.636233     2A    -15.592291     3A    -11.279903
       4A    -11.237759     5A    -11.209884     6A     -1.387001
       7A     -1.121894     8A     -1.066928     9A     -0.872759
      10A     -0.837039    11A     -0.757272    12A     -0.645745
      13A     -0.620828    14A     -0.609177    15A     -0.583905
      16A     -0.461413    17A     -0.370715    18A     -0.346055

  @DF-RHF Final Energy:  -224.76243506313369

   => Energetics <=

    Nuclear Repulsion Energy =            166.6286027396206464
    One-Electron Energy =                -633.5084732695812590
    Two-Electron Energy =                 242.1174354668269189
    Total Energy =                       -224.7624350631336938

  Dipole Moment: [D]
     X:     0.7394      Y:    -1.4336      Z:     1.7871     Total:     2.4074

    SAPT Results
  --------------------------------------------------------------------------------------------------------
    Electrostatics                 -0.01242814 [mEh]      -0.00779877 [kcal/mol]      -0.03263007 [kJ/mol]
      Elst10,r                     -0.01242814 [mEh]      -0.00779877 [kcal/mol]      -0.03263007 [kJ/mol]

    Exchange                        0.00000000 [mEh]       0.00000000 [kcal/mol]       0.00000000 [kJ/mol]
      Exch10                        0.00000000 [mEh]       0.00000000 [kcal/mol]       0.00000000 [kJ/mol]
      Exch10(S^2)                   0.00000000 [mEh]       0.00000000 [kcal/mol]       0.00000000 [kJ/mol]

    Induction                       0.00003483 [mEh]       0.00002185 [kcal/mol]       0.00009144 [kJ/mol]
      Ind20,r                      -0.00002422 [mEh]      -0.00001520 [kcal/mol]      -0.00006359 [kJ/mol]
      Exch-Ind20,r                  0.00000000 [mEh]       0.00000000 [kcal/mol]       0.00000000 [kJ/mol]
      delta HF,r (2)                0.00005905 [mEh]       0.00003705 [kcal/mol]       0.00015503 [kJ/mol]

    Dispersion                     -0.00027632 [mEh]      -0.00017339 [kcal/mol]      -0.00072547 [kJ/mol]
      Disp20                       -0.00027632 [mEh]      -0.00017339 [kcal/mol]      -0.00072547 [kJ/mol]
      Exch-Disp20                   0.00000000 [mEh]       0.00000000 [kcal/mol]       0.00000000 [kJ/mol]
      Disp20 (SS)                  -0.00013816 [mEh]      -0.00008670 [kcal/mol]      -0.00036273 [kJ/mol]
      Disp20 (OS)                  -0.00013816 [mEh]      -0.00008670 [kcal/mol]      -0.00036273 [kJ/mol]
      Exch-Disp20 (SS)              0.00000000 [mEh]       0.00000000 [kcal/mol]       0.00000000 [kJ/mol]
      Exch-Disp20 (OS)              0.00000000 [mEh]       0.00000000 [kcal/mol]       0.00000000 [kJ/mol]

  Total HF                         -0.01239331 [mEh]      -0.00777692 [kcal/mol]      -0.03253863 [kJ/mol]
  Total SAPT0                      -0.01266962 [mEh]      -0.00795031 [kcal/mol]      -0.03326410 [kJ/mol]

  Special recipe for scaled SAPT0 (see Manual):
    Electrostatics sSAPT0          -0.01242814 [mEh]      -0.00779877 [kcal/mol]      -0.03263007 [kJ/mol]
    Exchange sSAPT0                 0.00000000 [mEh]       0.00000000 [kcal/mol]       0.00000000 [kJ/mol]
    Induction sSAPT0                0.00003483 [mEh]       0.00002185 [kcal/mol]       0.00009144 [kJ/mol]
    Dispersion sSAPT0              -0.00027632 [mEh]      -0.00017339 [kcal/mol]      -0.00072547 [kJ/mol]
  Total sSAPT0                     -0.01266962 [mEh]      -0.00795031 [kcal/mol]      -0.03326410 [kJ/mol]
  --------------------------------------------------------------------------------------------------------

*** Psi4 exiting successfully. Buy a developer a beer!
