                               Psi4 1.4rc3

  ==> Input File <==

--------------------------------------------------------------------------
# PSI4 file produced by CrystaLattE

# Generated from:               pyrazole.xyz
# Psithon input for N-mer:      2mer-0+31
# Number of atoms per monomer:  [9, 9]
# Number of replicas:           1
# COM priority:                 5.685247174805e-04
# Minimum COM separations:      6.388
# Separation priority:          2.195047493878e-03
# Minimum monomer separations:  4.072
# Cutoff priority:              2.852716157441e-04
# Nuclear repulsion energy:     440.11832929209606

memory 7 GB

molecule Dimer_0_31 {
  N            6.27981210      -4.25303372       0.19313865
  N            6.06870777      -2.28125697       1.80544317
  H            3.66871156      -5.64628941      -1.96684001
  H            0.69034521      -2.37545694      -0.42864236
  H            3.35917442       0.17650601       3.09265017
  H            7.35266782      -1.99461311       2.90680702
  C            3.77952586      -1.21508453       1.76858172
  C            2.38242998      -2.55505538       0.04607681
  C            4.01771468      -4.38410490      -0.88761863
--
  N            2.79813836     -14.18732502       1.58785821
  N            2.91700062     -16.22523205       0.05068450
  H            5.47130109     -11.78641505       2.30588857
  H            8.36593765     -14.22895380      -0.44924894
  H            5.42951358     -17.94200281      -2.35388525
  H            1.45459240     -17.03520911      -0.33508083
  C            5.19983702     -16.55540772      -0.97836435
  C            6.68282945     -14.62573551      -0.08844188
  C            5.12152412     -13.24056769       1.50325606
units = au
no_com
no_reorient
}

set {
  e_convergence 10
  d_convergence 10
  scf_type df
  mp2_type df
  cc_type df
  freeze_core true
}

energy('sapt0/aug-cc-pvdz')

--------------------------------------------------------------------------

  //              Dimer HF             //
    Molecular point group: c1
  Charge       = 0
  Multiplicity = 1
  Basis Set: AUG-CC-PVDZ
    Blend: AUG-CC-PVDZ
  Basis Set: (AUG-CC-PVDZ AUX)
    Blend: AUG-CC-PVDZ-JKFIT
  @DF-RHF Final Energy:  -449.52549156275006
    Total Energy =                       -449.5254915627500623
  //            Monomer A HF           //
    Molecular point group: c1
  Multiplicity = 1
  Basis Set: AUG-CC-PVDZ
    Blend: AUG-CC-PVDZ
  Basis Set: (AUG-CC-PVDZ AUX)
    Blend: AUG-CC-PVDZ-JKFIT
  @DF-RHF Final Energy:  -224.76246110285234
    Total Energy =                       -224.7624611028523418
  //            Monomer B HF           //
    Molecular point group: c1

    Geometry (in Bohr), charge = 0, multiplicity = 1:

       Center              X                  Y                   Z               Mass
    ------------   -----------------  -----------------  -----------------  -----------------
      Gh(N)           6.279812100000    -4.253033720000     0.193138650000    14.003074004430
      Gh(N)           6.068707770000    -2.281256970000     1.805443170000    14.003074004430
      Gh(H)           3.668711560000    -5.646289410000    -1.966840010000     1.007825032230
      Gh(H)           0.690345210000    -2.375456940000    -0.428642360000     1.007825032230
      Gh(H)           3.359174420000     0.176506010000     3.092650170000     1.007825032230
      Gh(H)           7.352667820000    -1.994613110000     2.906807020000     1.007825032230
      Gh(C)           3.779525860000    -1.215084530000     1.768581720000    12.000000000000
      Gh(C)           2.382429980000    -2.555055380000     0.046076810000    12.000000000000
      Gh(C)           4.017714680000    -4.384104900000    -0.887618630000    12.000000000000
         N            2.798138360000   -14.187325020000     1.587858210000    14.003074004430
         N            2.917000620000   -16.225232050000     0.050684500000    14.003074004430
         H            5.471301090000   -11.786415050000     2.305888570000     1.007825032230
         H            8.365937650000   -14.228953800000    -0.449248940000     1.007825032230
         H            5.429513580000   -17.942002810000    -2.353885250000     1.007825032230
         H            1.454592400000   -17.035209110000    -0.335080830000     1.007825032230
         C            5.199837020000   -16.555407720000    -0.978364350000    12.000000000000
         C            6.682829450000   -14.625735510000    -0.088441880000    12.000000000000
         C            5.121524120000   -13.240567690000     1.503256060000    12.000000000000

  Charge       = 0
  Multiplicity = 1
  Basis Set: AUG-CC-PVDZ
    Blend: AUG-CC-PVDZ
  Basis Set: (AUG-CC-PVDZ AUX)
    Blend: AUG-CC-PVDZ-JKFIT

    Orbital Energies [Eh]
    ---------------------

    Doubly Occupied:

       1A    -15.636241     2A    -15.592303     3A    -11.279908
       4A    -11.237738     5A    -11.209883     6A     -1.387008
       7A     -1.121900     8A     -1.066933     9A     -0.872765
      10A     -0.837043    11A     -0.757279    12A     -0.645758
      13A     -0.620839    14A     -0.609188    15A     -0.583910
      16A     -0.461415    17A     -0.370722    18A     -0.346060

  @DF-RHF Final Energy:  -224.76255504748036

   => Energetics <=

    Nuclear Repulsion Energy =            166.6286030197693719
    One-Electron Energy =                -633.5085281819614238
    Two-Electron Energy =                 242.1173701147117185
    Total Energy =                       -224.7625550474803617

  Dipole Moment: [D]
     X:     0.7396      Y:    -1.4342      Z:    -1.7876     Total:     2.4082

    SAPT Results
  --------------------------------------------------------------------------------------------------------
    Electrostatics                 -0.46866474 [mEh]      -0.29409157 [kcal/mol]      -1.23047912 [kJ/mol]
      Elst10,r                     -0.46866474 [mEh]      -0.29409157 [kcal/mol]      -1.23047912 [kJ/mol]

    Exchange                        0.03934832 [mEh]       0.02469145 [kcal/mol]       0.10330901 [kJ/mol]
      Exch10                        0.03934832 [mEh]       0.02469145 [kcal/mol]       0.10330901 [kJ/mol]
      Exch10(S^2)                   0.03934650 [mEh]       0.02469030 [kcal/mol]       0.10330421 [kJ/mol]

    Induction                      -0.04609600 [mEh]      -0.02892567 [kcal/mol]      -0.12102502 [kJ/mol]
      Ind20,r                      -0.05266204 [mEh]      -0.03304593 [kcal/mol]      -0.13826415 [kJ/mol]
      Exch-Ind20,r                  0.00964631 [mEh]       0.00605315 [kcal/mol]       0.02532638 [kJ/mol]
      delta HF,r (2)               -0.00308027 [mEh]      -0.00193290 [kcal/mol]      -0.00808725 [kJ/mol]

    Dispersion                     -0.58557379 [mEh]      -0.36745310 [kcal/mol]      -1.53742377 [kJ/mol]
      Disp20                       -0.59263678 [mEh]      -0.37188520 [kcal/mol]      -1.55596766 [kJ/mol]
      Exch-Disp20                   0.00706299 [mEh]       0.00443210 [kcal/mol]       0.01854389 [kJ/mol]
      Disp20 (SS)                  -0.29631839 [mEh]      -0.18594260 [kcal/mol]      -0.77798383 [kJ/mol]
      Disp20 (OS)                  -0.29631839 [mEh]      -0.18594260 [kcal/mol]      -0.77798383 [kJ/mol]
      Exch-Disp20 (SS)              0.00489150 [mEh]       0.00306946 [kcal/mol]       0.01284263 [kJ/mol]
      Exch-Disp20 (OS)              0.00217149 [mEh]       0.00136263 [kcal/mol]       0.00570126 [kJ/mol]

  Total HF                         -0.47541242 [mEh]      -0.29832580 [kcal/mol]      -1.24819513 [kJ/mol]
  Total SAPT0                      -1.06098621 [mEh]      -0.66577890 [kcal/mol]      -2.78561890 [kJ/mol]

  Special recipe for scaled SAPT0 (see Manual):
    Electrostatics sSAPT0          -0.46866474 [mEh]      -0.29409157 [kcal/mol]      -1.23047912 [kJ/mol]
    Exchange sSAPT0                 0.03934832 [mEh]       0.02469145 [kcal/mol]       0.10330901 [kJ/mol]
    Induction sSAPT0               -0.04609465 [mEh]      -0.02892483 [kcal/mol]      -0.12102150 [kJ/mol]
    Dispersion sSAPT0              -0.58557281 [mEh]      -0.36745248 [kcal/mol]      -1.53742119 [kJ/mol]
  Total sSAPT0                     -1.06098388 [mEh]      -0.66577744 [kcal/mol]      -2.78561279 [kJ/mol]
  --------------------------------------------------------------------------------------------------------

*** Psi4 exiting successfully. Buy a developer a beer!
