                               Psi4 1.4rc3

  ==> Input File <==

--------------------------------------------------------------------------
# PSI4 file produced by CrystaLattE

# Generated from:               pyrazole.xyz
# Psithon input for N-mer:      2mer-0+324
# Number of atoms per monomer:  [9, 9]
# Number of replicas:           1
# COM priority:                 2.575907717173e-05
# Minimum COM separations:      17.918
# Separation priority:          4.007871283594e-05
# Minimum monomer separations:  15.463
# Cutoff priority:              1.371571188826e-06
# Nuclear repulsion energy:     371.44372796889286

memory 7 GB

molecule Dimer_0_324 {
  N            6.27981210      -4.25303372       0.19313865
  N            6.06870777      -2.28125697       1.80544317
  H            3.66871156      -5.64628941      -1.96684001
  H            0.69034521      -2.37545694      -0.42864236
  H            3.35917442       0.17650601       3.09265017
  H            7.35266782      -1.99461311       2.90680702
  C            3.77952586      -1.21508453       1.76858172
  C            2.38242998      -2.55505538       0.04607681
  C            4.01771468      -4.38410490      -0.88761863
--
  N           10.53656684      -2.29338878     -33.53956902
  N           10.65542910      -4.33129582     -32.00239530
  H           13.20972957       0.10752118     -34.25759937
  H           16.10436613      -2.33501756     -31.50246187
  H           13.16794206      -6.04806657     -29.59782556
  H            9.19302089      -5.14127288     -31.61662997
  C           12.93826550      -4.66147149     -30.97334645
  C           14.42125794      -2.73179927     -31.86326892
  C           12.85995261      -1.34663146     -33.45496687
units = au
no_com
no_reorient
}

set {
  e_convergence 10
  d_convergence 10
  scf_type df
  mp2_type df
  cc_type df
  freeze_core true
}

energy('sapt0/aug-cc-pvdz')

--------------------------------------------------------------------------

  //              Dimer HF             //
    Molecular point group: c1
  Charge       = 0
  Multiplicity = 1
  Basis Set: AUG-CC-PVDZ
    Blend: AUG-CC-PVDZ
  Basis Set: (AUG-CC-PVDZ AUX)
    Blend: AUG-CC-PVDZ-JKFIT
  @DF-RHF Final Energy:  -449.52480459722824
    Total Energy =                       -449.5248045972282398
  //            Monomer A HF           //
    Molecular point group: c1
  Multiplicity = 1
  Basis Set: AUG-CC-PVDZ
    Blend: AUG-CC-PVDZ
  Basis Set: (AUG-CC-PVDZ AUX)
    Blend: AUG-CC-PVDZ-JKFIT
  @DF-RHF Final Energy:  -224.76233952252056
    Total Energy =                       -224.7623395225205627
  //            Monomer B HF           //
    Molecular point group: c1

    Geometry (in Bohr), charge = 0, multiplicity = 1:

       Center              X                  Y                   Z               Mass
    ------------   -----------------  -----------------  -----------------  -----------------
      Gh(N)           6.279812100000    -4.253033720000     0.193138650000    14.003074004430
      Gh(N)           6.068707770000    -2.281256970000     1.805443170000    14.003074004430
      Gh(H)           3.668711560000    -5.646289410000    -1.966840010000     1.007825032230
      Gh(H)           0.690345210000    -2.375456940000    -0.428642360000     1.007825032230
      Gh(H)           3.359174420000     0.176506010000     3.092650170000     1.007825032230
      Gh(H)           7.352667820000    -1.994613110000     2.906807020000     1.007825032230
      Gh(C)           3.779525860000    -1.215084530000     1.768581720000    12.000000000000
      Gh(C)           2.382429980000    -2.555055380000     0.046076810000    12.000000000000
      Gh(C)           4.017714680000    -4.384104900000    -0.887618630000    12.000000000000
         N           10.536566840000    -2.293388780000   -33.539569020000    14.003074004430
         N           10.655429100000    -4.331295820000   -32.002395300000    14.003074004430
         H           13.209729570000     0.107521180000   -34.257599370000     1.007825032230
         H           16.104366130000    -2.335017560000   -31.502461870000     1.007825032230
         H           13.167942060000    -6.048066570000   -29.597825560000     1.007825032230
         H            9.193020890000    -5.141272880000   -31.616629970000     1.007825032230
         C           12.938265500000    -4.661471490000   -30.973346450000    12.000000000000
         C           14.421257940000    -2.731799270000   -31.863268920000    12.000000000000
         C           12.859952610000    -1.346631460000   -33.454966870000    12.000000000000

  Charge       = 0
  Multiplicity = 1
  Basis Set: AUG-CC-PVDZ
    Blend: AUG-CC-PVDZ
  Basis Set: (AUG-CC-PVDZ AUX)
    Blend: AUG-CC-PVDZ-JKFIT

    Orbital Energies [Eh]
    ---------------------

    Doubly Occupied:

       1A    -15.636233     2A    -15.592291     3A    -11.279903
       4A    -11.237759     5A    -11.209884     6A     -1.387001
       7A     -1.121894     8A     -1.066928     9A     -0.872759
      10A     -0.837039    11A     -0.757272    12A     -0.645745
      13A     -0.620828    14A     -0.609177    15A     -0.583905
      16A     -0.461413    17A     -0.370715    18A     -0.346055

  @DF-RHF Final Energy:  -224.76243505821100

   => Energetics <=

    Nuclear Repulsion Energy =            166.6286027687440310
    One-Electron Energy =                -633.5084733119012981
    Two-Electron Energy =                 242.1174354849462702
    Total Energy =                       -224.7624350582109969

  Dipole Moment: [D]
     X:     0.7394      Y:    -1.4336      Z:     1.7871     Total:     2.4074

    SAPT Results
  --------------------------------------------------------------------------------------------------------
    Electrostatics                 -0.03002581 [mEh]      -0.01884148 [kcal/mol]      -0.07883275 [kJ/mol]
      Elst10,r                     -0.03002581 [mEh]      -0.01884148 [kcal/mol]      -0.07883275 [kJ/mol]

    Exchange                        0.00000000 [mEh]       0.00000000 [kcal/mol]       0.00000000 [kJ/mol]
      Exch10                        0.00000000 [mEh]       0.00000000 [kcal/mol]       0.00000000 [kJ/mol]
      Exch10(S^2)                   0.00000000 [mEh]       0.00000000 [kcal/mol]       0.00000000 [kJ/mol]

    Induction                       0.00000931 [mEh]       0.00000584 [kcal/mol]       0.00002445 [kJ/mol]
      Ind20,r                      -0.00006528 [mEh]      -0.00004096 [kcal/mol]      -0.00017139 [kJ/mol]
      Exch-Ind20,r                  0.00000000 [mEh]       0.00000000 [kcal/mol]       0.00000000 [kJ/mol]
      delta HF,r (2)                0.00007459 [mEh]       0.00004681 [kcal/mol]       0.00019585 [kJ/mol]

    Dispersion                     -0.00072179 [mEh]      -0.00045293 [kcal/mol]      -0.00189506 [kJ/mol]
      Disp20                       -0.00072179 [mEh]      -0.00045293 [kcal/mol]      -0.00189506 [kJ/mol]
      Exch-Disp20                   0.00000000 [mEh]       0.00000000 [kcal/mol]       0.00000000 [kJ/mol]
      Disp20 (SS)                  -0.00036089 [mEh]      -0.00022646 [kcal/mol]      -0.00094753 [kJ/mol]
      Disp20 (OS)                  -0.00036089 [mEh]      -0.00022646 [kcal/mol]      -0.00094753 [kJ/mol]
      Exch-Disp20 (SS)              0.00000000 [mEh]       0.00000000 [kcal/mol]       0.00000000 [kJ/mol]
      Exch-Disp20 (OS)              0.00000000 [mEh]       0.00000000 [kcal/mol]       0.00000000 [kJ/mol]

  Total HF                         -0.03001650 [mEh]      -0.01883564 [kcal/mol]      -0.07880830 [kJ/mol]
  Total SAPT0                      -0.03073829 [mEh]      -0.01928857 [kcal/mol]      -0.08070336 [kJ/mol]

  Special recipe for scaled SAPT0 (see Manual):
    Electrostatics sSAPT0          -0.03002581 [mEh]      -0.01884148 [kcal/mol]      -0.07883275 [kJ/mol]
    Exchange sSAPT0                 0.00000000 [mEh]       0.00000000 [kcal/mol]       0.00000000 [kJ/mol]
    Induction sSAPT0                0.00000931 [mEh]       0.00000584 [kcal/mol]       0.00002445 [kJ/mol]
    Dispersion sSAPT0              -0.00072179 [mEh]      -0.00045293 [kcal/mol]      -0.00189506 [kJ/mol]
  Total sSAPT0                     -0.03073829 [mEh]      -0.01928857 [kcal/mol]      -0.08070336 [kJ/mol]
  --------------------------------------------------------------------------------------------------------

*** Psi4 exiting successfully. Buy a developer a beer!
