                               Psi4 1.4rc3

  ==> Input File <==

--------------------------------------------------------------------------
# PSI4 file produced by CrystaLattE

# Generated from:               pyrazole.xyz
# Psithon input for N-mer:      2mer-0+372
# Number of atoms per monomer:  [9, 9]
# Number of replicas:           2
# COM priority:                 1.366439291367e-05
# Minimum COM separations:      22.135
# Separation priority:          2.007268551445e-05
# Minimum monomer separations:  19.471
# Cutoff priority:              5.455157666645e-07
# Nuclear repulsion energy:     364.21720162753206

memory 7 GB

molecule Dimer_0_372 {
  N            6.27981210      -4.25303372       0.19313865
  N            6.06870777      -2.28125697       1.80544317
  H            3.66871156      -5.64628941      -1.96684001
  H            0.69034521      -2.37545694      -0.42864236
  H            3.35917442       0.17650601       3.09265017
  H            7.35266782      -1.99461311       2.90680702
  C            3.77952586      -1.21508453       1.76858172
  C            2.38242998      -2.55505538       0.04607681
  C            4.01771468      -4.38410490      -0.88761863
--
  N           -1.45861638      31.42877498     -19.34573440
  N           -1.66972071      33.40055173     -20.95803893
  H           -4.06971692      30.03551929     -17.18575575
  H           -7.04808328      33.30635176     -18.72395339
  H           -4.37925406      35.85831471     -22.24524593
  H           -0.38576066      33.68719559     -22.05940278
  C           -3.95890263      34.46672418     -20.92117747
  C           -5.35599851      33.12675332     -19.19867257
  C           -3.72071380      31.29770381     -18.26497713
units = au
no_com
no_reorient
}

set {
  e_convergence 10
  d_convergence 10
  scf_type df
  mp2_type df
  cc_type df
  freeze_core true
}

energy('sapt0/aug-cc-pvdz')

--------------------------------------------------------------------------

  //              Dimer HF             //
    Molecular point group: c1
  Charge       = 0
  Multiplicity = 1
  Basis Set: AUG-CC-PVDZ
    Blend: AUG-CC-PVDZ
  Basis Set: (AUG-CC-PVDZ AUX)
    Blend: AUG-CC-PVDZ-JKFIT
  @DF-RHF Final Energy:  -449.52468140167122
    Total Energy =                       -449.5246814016712733
  //            Monomer A HF           //
    Molecular point group: c1
  Multiplicity = 1
  Basis Set: AUG-CC-PVDZ
    Blend: AUG-CC-PVDZ
  Basis Set: (AUG-CC-PVDZ AUX)
    Blend: AUG-CC-PVDZ-JKFIT
  @DF-RHF Final Energy:  -224.76233952125739
    Total Energy =                       -224.7623395212573882
  //            Monomer B HF           //
    Molecular point group: c1

    Geometry (in Bohr), charge = 0, multiplicity = 1:

       Center              X                  Y                   Z               Mass
    ------------   -----------------  -----------------  -----------------  -----------------
      Gh(N)           6.279812100000    -4.253033720000     0.193138650000    14.003074004430
      Gh(N)           6.068707770000    -2.281256970000     1.805443170000    14.003074004430
      Gh(H)           3.668711560000    -5.646289410000    -1.966840010000     1.007825032230
      Gh(H)           0.690345210000    -2.375456940000    -0.428642360000     1.007825032230
      Gh(H)           3.359174420000     0.176506010000     3.092650170000     1.007825032230
      Gh(H)           7.352667820000    -1.994613110000     2.906807020000     1.007825032230
      Gh(C)           3.779525860000    -1.215084530000     1.768581720000    12.000000000000
      Gh(C)           2.382429980000    -2.555055380000     0.046076810000    12.000000000000
      Gh(C)           4.017714680000    -4.384104900000    -0.887618630000    12.000000000000
         N           -1.458616380000    31.428774980000   -19.345734400000    14.003074004430
         N           -1.669720710000    33.400551730000   -20.958038930000    14.003074004430
         H           -4.069716920000    30.035519290000   -17.185755750000     1.007825032230
         H           -7.048083280000    33.306351760000   -18.723953390000     1.007825032230
         H           -4.379254060000    35.858314710000   -22.245245930000     1.007825032230
         H           -0.385760660000    33.687195590000   -22.059402780000     1.007825032230
         C           -3.958902630000    34.466724180000   -20.921177470000    12.000000000000
         C           -5.355998510000    33.126753320000   -19.198672570000    12.000000000000
         C           -3.720713800000    31.297703810000   -18.264977130000    12.000000000000

  Charge       = 0
  Multiplicity = 1
  Basis Set: AUG-CC-PVDZ
    Blend: AUG-CC-PVDZ
  Basis Set: (AUG-CC-PVDZ AUX)
    Blend: AUG-CC-PVDZ-JKFIT

    Orbital Energies [Eh]
    ---------------------

    Doubly Occupied:

       1A    -15.636223     2A    -15.592313     3A    -11.279894
       4A    -11.237784     5A    -11.209891     6A     -1.386922
       7A     -1.121901     8A     -1.066898     9A     -0.872768
      10A     -0.837061    11A     -0.757292    12A     -0.645746
      13A     -0.620834    14A     -0.609140    15A     -0.583920
      16A     -0.461404    17A     -0.370721    18A     -0.346048

  @DF-RHF Final Energy:  -224.76233952272850

   => Energetics <=

    Nuclear Repulsion Energy =            166.6240562776352476
    One-Electron Energy =                -633.4992730538031083
    Two-Electron Energy =                 242.1128772534393647
    Total Energy =                       -224.7623395227284959

  Dipole Moment: [D]
     X:    -1.0235      Y:     1.6055      Z:    -1.4733     Total:     2.4075

    SAPT Results
  --------------------------------------------------------------------------------------------------------
    Electrostatics                 -0.00240858 [mEh]      -0.00151141 [kcal/mol]      -0.00632373 [kJ/mol]
      Elst10,r                     -0.00240858 [mEh]      -0.00151141 [kcal/mol]      -0.00632373 [kJ/mol]

    Exchange                        0.00000000 [mEh]       0.00000000 [kcal/mol]       0.00000000 [kJ/mol]
      Exch10                        0.00000000 [mEh]       0.00000000 [kcal/mol]       0.00000000 [kJ/mol]
      Exch10(S^2)                   0.00000000 [mEh]       0.00000000 [kcal/mol]       0.00000000 [kJ/mol]

    Induction                       0.00005090 [mEh]       0.00003194 [kcal/mol]       0.00013363 [kJ/mol]
      Ind20,r                      -0.00001411 [mEh]      -0.00000886 [kcal/mol]      -0.00003705 [kJ/mol]
      Exch-Ind20,r                  0.00000000 [mEh]       0.00000000 [kcal/mol]       0.00000000 [kJ/mol]
      delta HF,r (2)                0.00006501 [mEh]       0.00004079 [kcal/mol]       0.00017068 [kJ/mol]

    Dispersion                     -0.00021529 [mEh]      -0.00013510 [kcal/mol]      -0.00056525 [kJ/mol]
      Disp20                       -0.00021529 [mEh]      -0.00013510 [kcal/mol]      -0.00056525 [kJ/mol]
      Exch-Disp20                   0.00000000 [mEh]       0.00000000 [kcal/mol]       0.00000000 [kJ/mol]
      Disp20 (SS)                  -0.00010765 [mEh]      -0.00006755 [kcal/mol]      -0.00028262 [kJ/mol]
      Disp20 (OS)                  -0.00010765 [mEh]      -0.00006755 [kcal/mol]      -0.00028262 [kJ/mol]
      Exch-Disp20 (SS)              0.00000000 [mEh]       0.00000000 [kcal/mol]       0.00000000 [kJ/mol]
      Exch-Disp20 (OS)              0.00000000 [mEh]       0.00000000 [kcal/mol]       0.00000000 [kJ/mol]

  Total HF                         -0.00235769 [mEh]      -0.00147947 [kcal/mol]      -0.00619010 [kJ/mol]
  Total SAPT0                      -0.00257298 [mEh]      -0.00161457 [kcal/mol]      -0.00675535 [kJ/mol]

  Special recipe for scaled SAPT0 (see Manual):
    Electrostatics sSAPT0          -0.00240858 [mEh]      -0.00151141 [kcal/mol]      -0.00632373 [kJ/mol]
    Exchange sSAPT0                 0.00000000 [mEh]       0.00000000 [kcal/mol]       0.00000000 [kJ/mol]
    Induction sSAPT0                0.00005090 [mEh]       0.00003194 [kcal/mol]       0.00013363 [kJ/mol]
    Dispersion sSAPT0              -0.00021529 [mEh]      -0.00013510 [kcal/mol]      -0.00056525 [kJ/mol]
  Total sSAPT0                     -0.00257298 [mEh]      -0.00161457 [kcal/mol]      -0.00675535 [kJ/mol]
  --------------------------------------------------------------------------------------------------------

*** Psi4 exiting successfully. Buy a developer a beer!
