                               Psi4 1.4rc3

  ==> Input File <==

--------------------------------------------------------------------------
# PSI4 file produced by CrystaLattE

# Generated from:               pyrazole.xyz
# Psithon input for N-mer:      2mer-0+463
# Number of atoms per monomer:  [9, 9]
# Number of replicas:           1
# COM priority:                 1.505093556376e-05
# Minimum COM separations:      21.433
# Separation priority:          2.910968425375e-05
# Minimum monomer separations:  17.202
# Cutoff priority:              8.954678397808e-07
# Nuclear repulsion energy:     365.3268723600244

memory 7 GB

molecule Dimer_0_463 {
  N            6.27981210      -4.25303372       0.19313865
  N            6.06870777      -2.28125697       1.80544317
  H            3.66871156      -5.64628941      -1.96684001
  H            0.69034521      -2.37545694      -0.42864236
  H            3.35917442       0.17650601       3.09265017
  H            7.35266782      -1.99461311       2.90680702
  C            3.77952586      -1.21508453       1.76858172
  C            2.38242998      -2.55505538       0.04607681
  C            4.01771468      -4.38410490      -0.88761863
--
  N           -4.94029013     -33.28089873     -27.14001149
  N           -4.82142787     -31.24299170     -25.60283778
  H           -2.26712739     -35.68180870     -27.85804185
  H            0.62750917     -33.23926996     -25.10290434
  H           -2.30891491     -29.52622094     -23.19826803
  H           -6.28383608     -30.43301464     -25.21707245
  C           -2.53859146     -30.91281603     -24.57378893
  C           -1.05559903     -32.84248824     -25.46371140
  C           -2.61690436     -34.22765606     -27.05540934
units = au
no_com
no_reorient
}

set {
  e_convergence 10
  d_convergence 10
  scf_type df
  mp2_type df
  cc_type df
  freeze_core true
}

energy('sapt0/aug-cc-pvdz')

--------------------------------------------------------------------------

  //              Dimer HF             //
    Molecular point group: c1
  Charge       = 0
  Multiplicity = 1
  Basis Set: AUG-CC-PVDZ
    Blend: AUG-CC-PVDZ
  Basis Set: (AUG-CC-PVDZ AUX)
    Blend: AUG-CC-PVDZ-JKFIT
  @DF-RHF Final Energy:  -449.52478889686154
    Total Energy =                       -449.5247888968615371
  //            Monomer A HF           //
    Molecular point group: c1
  Multiplicity = 1
  Basis Set: AUG-CC-PVDZ
    Blend: AUG-CC-PVDZ
  Basis Set: (AUG-CC-PVDZ AUX)
    Blend: AUG-CC-PVDZ-JKFIT
  @DF-RHF Final Energy:  -224.76233952141916
    Total Energy =                       -224.7623395214191646
  //            Monomer B HF           //
    Molecular point group: c1

    Geometry (in Bohr), charge = 0, multiplicity = 1:

       Center              X                  Y                   Z               Mass
    ------------   -----------------  -----------------  -----------------  -----------------
      Gh(N)           6.279812100000    -4.253033720000     0.193138650000    14.003074004430
      Gh(N)           6.068707770000    -2.281256970000     1.805443170000    14.003074004430
      Gh(H)           3.668711560000    -5.646289410000    -1.966840010000     1.007825032230
      Gh(H)           0.690345210000    -2.375456940000    -0.428642360000     1.007825032230
      Gh(H)           3.359174420000     0.176506010000     3.092650170000     1.007825032230
      Gh(H)           7.352667820000    -1.994613110000     2.906807020000     1.007825032230
      Gh(C)           3.779525860000    -1.215084530000     1.768581720000    12.000000000000
      Gh(C)           2.382429980000    -2.555055380000     0.046076810000    12.000000000000
      Gh(C)           4.017714680000    -4.384104900000    -0.887618630000    12.000000000000
         N           -4.940290130000   -33.280898730000   -27.140011490000    14.003074004430
         N           -4.821427870000   -31.242991700000   -25.602837780000    14.003074004430
         H           -2.267127390000   -35.681808700000   -27.858041850000     1.007825032230
         H            0.627509170000   -33.239269960000   -25.102904340000     1.007825032230
         H           -2.308914910000   -29.526220940000   -23.198268030000     1.007825032230
         H           -6.283836080000   -30.433014640000   -25.217072450000     1.007825032230
         C           -2.538591460000   -30.912816030000   -24.573788930000    12.000000000000
         C           -1.055599030000   -32.842488240000   -25.463711400000    12.000000000000
         C           -2.616904360000   -34.227656060000   -27.055409340000    12.000000000000

  Charge       = 0
  Multiplicity = 1
  Basis Set: AUG-CC-PVDZ
    Blend: AUG-CC-PVDZ
  Basis Set: (AUG-CC-PVDZ AUX)
    Blend: AUG-CC-PVDZ-JKFIT

    Orbital Energies [Eh]
    ---------------------

    Doubly Occupied:

       1A    -15.636233     2A    -15.592291     3A    -11.279903
       4A    -11.237759     5A    -11.209884     6A     -1.387001
       7A     -1.121894     8A     -1.066928     9A     -0.872759
      10A     -0.837039    11A     -0.757272    12A     -0.645745
      13A     -0.620828    14A     -0.609177    15A     -0.583905
      16A     -0.461413    17A     -0.370715    18A     -0.346055

  @DF-RHF Final Energy:  -224.76243506276862

   => Energetics <=

    Nuclear Repulsion Energy =            166.6286028346680155
    One-Electron Energy =                -633.5084734551144265
    Two-Electron Energy =                 242.1174355576777941
    Total Energy =                       -224.7624350627686169

  Dipole Moment: [D]
     X:     0.7394      Y:     1.4336      Z:     1.7871     Total:     2.4074

    SAPT Results
  --------------------------------------------------------------------------------------------------------
    Electrostatics                 -0.01434166 [mEh]      -0.00899953 [kcal/mol]      -0.03765402 [kJ/mol]
      Elst10,r                     -0.01434166 [mEh]      -0.00899953 [kcal/mol]      -0.03765402 [kJ/mol]

    Exchange                        0.00000000 [mEh]       0.00000000 [kcal/mol]       0.00000000 [kJ/mol]
      Exch10                        0.00000000 [mEh]       0.00000000 [kcal/mol]       0.00000000 [kJ/mol]
      Exch10(S^2)                   0.00000000 [mEh]       0.00000000 [kcal/mol]       0.00000000 [kJ/mol]

    Induction                       0.00002898 [mEh]       0.00001819 [kcal/mol]       0.00007610 [kJ/mol]
      Ind20,r                      -0.00003237 [mEh]      -0.00002031 [kcal/mol]      -0.00008499 [kJ/mol]
      Exch-Ind20,r                  0.00000000 [mEh]       0.00000000 [kcal/mol]       0.00000000 [kJ/mol]
      delta HF,r (2)                0.00006136 [mEh]       0.00003850 [kcal/mol]       0.00016109 [kJ/mol]

    Dispersion                     -0.00030757 [mEh]      -0.00019300 [kcal/mol]      -0.00080752 [kJ/mol]
      Disp20                       -0.00030757 [mEh]      -0.00019300 [kcal/mol]      -0.00080752 [kJ/mol]
      Exch-Disp20                   0.00000000 [mEh]       0.00000000 [kcal/mol]       0.00000000 [kJ/mol]
      Disp20 (SS)                  -0.00015378 [mEh]      -0.00009650 [kcal/mol]      -0.00040376 [kJ/mol]
      Disp20 (OS)                  -0.00015378 [mEh]      -0.00009650 [kcal/mol]      -0.00040376 [kJ/mol]
      Exch-Disp20 (SS)              0.00000000 [mEh]       0.00000000 [kcal/mol]       0.00000000 [kJ/mol]
      Exch-Disp20 (OS)              0.00000000 [mEh]       0.00000000 [kcal/mol]       0.00000000 [kJ/mol]

  Total HF                         -0.01431267 [mEh]      -0.00898134 [kcal/mol]      -0.03757792 [kJ/mol]
  Total SAPT0                      -0.01462024 [mEh]      -0.00917434 [kcal/mol]      -0.03838544 [kJ/mol]

  Special recipe for scaled SAPT0 (see Manual):
    Electrostatics sSAPT0          -0.01434166 [mEh]      -0.00899953 [kcal/mol]      -0.03765402 [kJ/mol]
    Exchange sSAPT0                 0.00000000 [mEh]       0.00000000 [kcal/mol]       0.00000000 [kJ/mol]
    Induction sSAPT0                0.00002898 [mEh]       0.00001819 [kcal/mol]       0.00007610 [kJ/mol]
    Dispersion sSAPT0              -0.00030757 [mEh]      -0.00019300 [kcal/mol]      -0.00080752 [kJ/mol]
  Total sSAPT0                     -0.01462024 [mEh]      -0.00917434 [kcal/mol]      -0.03838544 [kJ/mol]
  --------------------------------------------------------------------------------------------------------

*** Psi4 exiting successfully. Buy a developer a beer!
