                               Psi4 1.4rc3

  ==> Input File <==

--------------------------------------------------------------------------
# PSI4 file produced by CrystaLattE

# Generated from:               pyrazole.xyz
# Psithon input for N-mer:      2mer-0+112
# Number of atoms per monomer:  [9, 9]
# Number of replicas:           1
# COM priority:                 7.878605595533e-05
# Minimum COM separations:      12.344
# Separation priority:          1.194915201093e-04
# Minimum monomer separations:  10.744
# Cutoff priority:              5.885492103875e-06
# Nuclear repulsion energy:     388.4523417336826

memory 7 GB

molecule Dimer_0_112 {
  N            6.27981210      -4.25303372       0.19313865
  N            6.06870777      -2.28125697       1.80544317
  H            3.66871156      -5.64628941      -1.96684001
  H            0.69034521      -2.37545694      -0.42864236
  H            3.35917442       0.17650601       3.09265017
  H            7.35266782      -1.99461311       2.90680702
  C            3.77952586      -1.21508453       1.76858172
  C            2.38242998      -2.55505538       0.04607681
  C            4.01771468      -4.38410490      -0.88761863
--
  N           18.27499532       9.60054745     -11.21125683
  N           18.39385758       7.56264041     -12.74843055
  H           20.94815806      12.00145742     -10.49322648
  H           23.84279462       9.55891867     -13.24836399
  H           20.90637054       5.84586966     -15.15300030
  H           16.93144937       6.75266336     -13.13419588
  C           20.67669399       7.23246474     -13.77747940
  C           22.15968642       9.16213696     -12.88755693
  C           20.59838109      10.54730477     -11.29585899
units = au
no_com
no_reorient
}

set {
  e_convergence 10
  d_convergence 10
  scf_type df
  mp2_type df
  cc_type df
  freeze_core true
}

energy('sapt0/aug-cc-pvdz')

--------------------------------------------------------------------------

  //              Dimer HF             //
    Molecular point group: c1
  Charge       = 0
  Multiplicity = 1
  Basis Set: AUG-CC-PVDZ
    Blend: AUG-CC-PVDZ
  Basis Set: (AUG-CC-PVDZ AUX)
    Blend: AUG-CC-PVDZ-JKFIT
  @DF-RHF Final Energy:  -449.52484560450586
    Total Energy =                       -449.5248456045057992
  //            Monomer A HF           //
    Molecular point group: c1
  Multiplicity = 1
  Basis Set: AUG-CC-PVDZ
    Blend: AUG-CC-PVDZ
  Basis Set: (AUG-CC-PVDZ AUX)
    Blend: AUG-CC-PVDZ-JKFIT
  @DF-RHF Final Energy:  -224.76233967989921
    Total Energy =                       -224.7623396798992133
  //            Monomer B HF           //
    Molecular point group: c1

    Geometry (in Bohr), charge = 0, multiplicity = 1:

       Center              X                  Y                   Z               Mass
    ------------   -----------------  -----------------  -----------------  -----------------
      Gh(N)           6.279812100000    -4.253033720000     0.193138650000    14.003074004430
      Gh(N)           6.068707770000    -2.281256970000     1.805443170000    14.003074004430
      Gh(H)           3.668711560000    -5.646289410000    -1.966840010000     1.007825032230
      Gh(H)           0.690345210000    -2.375456940000    -0.428642360000     1.007825032230
      Gh(H)           3.359174420000     0.176506010000     3.092650170000     1.007825032230
      Gh(H)           7.352667820000    -1.994613110000     2.906807020000     1.007825032230
      Gh(C)           3.779525860000    -1.215084530000     1.768581720000    12.000000000000
      Gh(C)           2.382429980000    -2.555055380000     0.046076810000    12.000000000000
      Gh(C)           4.017714680000    -4.384104900000    -0.887618630000    12.000000000000
         N           18.274995320000     9.600547450000   -11.211256830000    14.003074004430
         N           18.393857580000     7.562640410000   -12.748430550000    14.003074004430
         H           20.948158060000    12.001457420000   -10.493226480000     1.007825032230
         H           23.842794620000     9.558918670000   -13.248363990000     1.007825032230
         H           20.906370540000     5.845869660000   -15.153000300000     1.007825032230
         H           16.931449370000     6.752663360000   -13.134195880000     1.007825032230
         C           20.676693990000     7.232464740000   -13.777479400000    12.000000000000
         C           22.159686420000     9.162136960000   -12.887556930000    12.000000000000
         C           20.598381090000    10.547304770000   -11.295858990000    12.000000000000

  Charge       = 0
  Multiplicity = 1
  Basis Set: AUG-CC-PVDZ
    Blend: AUG-CC-PVDZ
  Basis Set: (AUG-CC-PVDZ AUX)
    Blend: AUG-CC-PVDZ-JKFIT

    Orbital Energies [Eh]
    ---------------------

    Doubly Occupied:

       1A    -15.636233     2A    -15.592291     3A    -11.279903
       4A    -11.237759     5A    -11.209884     6A     -1.387001
       7A     -1.121894     8A     -1.066928     9A     -0.872759
      10A     -0.837039    11A     -0.757272    12A     -0.645745
      13A     -0.620828    14A     -0.609177    15A     -0.583905
      16A     -0.461413    17A     -0.370715    18A     -0.346055

  @DF-RHF Final Energy:  -224.76243509553581

   => Energetics <=

    Nuclear Repulsion Energy =            166.6286027010976056
    One-Electron Energy =                -633.5084733073185816
    Two-Electron Energy =                 242.1174355106851408
    Total Energy =                       -224.7624350955358068

  Dipole Moment: [D]
     X:     0.7394      Y:    -1.4336      Z:    -1.7871     Total:     2.4074

    SAPT Results
  --------------------------------------------------------------------------------------------------------
    Electrostatics                 -0.07031964 [mEh]      -0.04412624 [kcal/mol]      -0.18462419 [kJ/mol]
      Elst10,r                     -0.07031964 [mEh]      -0.04412624 [kcal/mol]      -0.18462419 [kJ/mol]

    Exchange                        0.00000001 [mEh]       0.00000001 [kcal/mol]       0.00000002 [kJ/mol]
      Exch10                        0.00000001 [mEh]       0.00000001 [kcal/mol]       0.00000002 [kJ/mol]
      Exch10(S^2)                   0.00000001 [mEh]       0.00000001 [kcal/mol]       0.00000002 [kJ/mol]

    Induction                      -0.00050944 [mEh]      -0.00031968 [kcal/mol]      -0.00133753 [kJ/mol]
      Ind20,r                      -0.00059024 [mEh]      -0.00037038 [kcal/mol]      -0.00154969 [kJ/mol]
      Exch-Ind20,r                  0.00000012 [mEh]       0.00000008 [kcal/mol]       0.00000032 [kJ/mol]
      delta HF,r (2)                0.00008068 [mEh]       0.00005063 [kcal/mol]       0.00021183 [kJ/mol]

    Dispersion                     -0.00645980 [mEh]      -0.00405359 [kcal/mol]      -0.01696021 [kJ/mol]
      Disp20                       -0.00645982 [mEh]      -0.00405360 [kcal/mol]      -0.01696025 [kJ/mol]
      Exch-Disp20                   0.00000001 [mEh]       0.00000001 [kcal/mol]       0.00000004 [kJ/mol]
      Disp20 (SS)                  -0.00322991 [mEh]      -0.00202680 [kcal/mol]      -0.00848012 [kJ/mol]
      Disp20 (OS)                  -0.00322991 [mEh]      -0.00202680 [kcal/mol]      -0.00848012 [kJ/mol]
      Exch-Disp20 (SS)              0.00000001 [mEh]       0.00000001 [kcal/mol]       0.00000003 [kJ/mol]
      Exch-Disp20 (OS)              0.00000000 [mEh]       0.00000000 [kcal/mol]       0.00000001 [kJ/mol]

  Total HF                         -0.07082907 [mEh]      -0.04444591 [kcal/mol]      -0.18596170 [kJ/mol]
  Total SAPT0                      -0.07728887 [mEh]      -0.04849950 [kcal/mol]      -0.20292191 [kJ/mol]

  Special recipe for scaled SAPT0 (see Manual):
    Electrostatics sSAPT0          -0.07031964 [mEh]      -0.04412624 [kcal/mol]      -0.18462419 [kJ/mol]
    Exchange sSAPT0                 0.00000001 [mEh]       0.00000001 [kcal/mol]       0.00000002 [kJ/mol]
    Induction sSAPT0               -0.00050944 [mEh]      -0.00031968 [kcal/mol]      -0.00133753 [kJ/mol]
    Dispersion sSAPT0              -0.00645980 [mEh]      -0.00405359 [kcal/mol]      -0.01696021 [kJ/mol]
  Total sSAPT0                     -0.07728887 [mEh]      -0.04849950 [kcal/mol]      -0.20292191 [kJ/mol]
  --------------------------------------------------------------------------------------------------------

*** Psi4 exiting successfully. Buy a developer a beer!
