                               Psi4 1.4rc3

  ==> Input File <==

--------------------------------------------------------------------------
# PSI4 file produced by CrystaLattE

# Generated from:               pyrazole.xyz
# Psithon input for N-mer:      2mer-0+207
# Number of atoms per monomer:  [9, 9]
# Number of replicas:           1
# COM priority:                 2.920256254073e-05
# Minimum COM separations:      17.184
# Separation priority:          5.646125984540e-05
# Minimum monomer separations:  13.794
# Cutoff priority:              2.166044722867e-06
# Nuclear repulsion energy:     373.2120588527035

memory 7 GB

molecule Dimer_0_207 {
  N            6.27981210      -4.25303372       0.19313865
  N            6.06870777      -2.28125697       1.80544317
  H            3.66871156      -5.64628941      -1.96684001
  H            0.69034521      -2.37545694      -0.42864236
  H            3.35917442       0.17650601       3.09265017
  H            7.35266782      -1.99461311       2.90680702
  C            3.77952586      -1.21508453       1.76858172
  C            2.38242998      -2.55505538       0.04607681
  C            4.01771468      -4.38410490      -0.88761863
--
  N          -12.67871861     -14.18732502     -24.01037188
  N          -12.55985635     -16.22523205     -25.54754560
  H          -10.00555588     -11.78641505     -23.29234153
  H           -7.11091932     -14.22895380     -26.04747903
  H          -10.04734339     -17.94200281     -27.95211534
  H          -14.02226457     -17.03520911     -25.93331093
  C          -10.27701995     -16.55540772     -26.57659445
  C           -8.79402751     -14.62573551     -25.68667198
  C          -10.35533284     -13.24056769     -24.09497403
units = au
no_com
no_reorient
}

set {
  e_convergence 10
  d_convergence 10
  scf_type df
  mp2_type df
  cc_type df
  freeze_core true
}

energy('sapt0/aug-cc-pvdz')

--------------------------------------------------------------------------

  //              Dimer HF             //
    Molecular point group: c1
  Charge       = 0
  Multiplicity = 1
  Basis Set: AUG-CC-PVDZ
    Blend: AUG-CC-PVDZ
  Basis Set: (AUG-CC-PVDZ AUX)
    Blend: AUG-CC-PVDZ-JKFIT
  @DF-RHF Final Energy:  -449.52478518778770
    Total Energy =                       -449.5247851877877565
  //            Monomer A HF           //
    Molecular point group: c1
  Multiplicity = 1
  Basis Set: AUG-CC-PVDZ
    Blend: AUG-CC-PVDZ
  Basis Set: (AUG-CC-PVDZ AUX)
    Blend: AUG-CC-PVDZ-JKFIT
  @DF-RHF Final Energy:  -224.76233952177927
    Total Energy =                       -224.7623395217792677
  //            Monomer B HF           //
    Molecular point group: c1

    Geometry (in Bohr), charge = 0, multiplicity = 1:

       Center              X                  Y                   Z               Mass
    ------------   -----------------  -----------------  -----------------  -----------------
      Gh(N)           6.279812100000    -4.253033720000     0.193138650000    14.003074004430
      Gh(N)           6.068707770000    -2.281256970000     1.805443170000    14.003074004430
      Gh(H)           3.668711560000    -5.646289410000    -1.966840010000     1.007825032230
      Gh(H)           0.690345210000    -2.375456940000    -0.428642360000     1.007825032230
      Gh(H)           3.359174420000     0.176506010000     3.092650170000     1.007825032230
      Gh(H)           7.352667820000    -1.994613110000     2.906807020000     1.007825032230
      Gh(C)           3.779525860000    -1.215084530000     1.768581720000    12.000000000000
      Gh(C)           2.382429980000    -2.555055380000     0.046076810000    12.000000000000
      Gh(C)           4.017714680000    -4.384104900000    -0.887618630000    12.000000000000
         N          -12.678718610000   -14.187325020000   -24.010371880000    14.003074004430
         N          -12.559856350000   -16.225232050000   -25.547545600000    14.003074004430
         H          -10.005555880000   -11.786415050000   -23.292341530000     1.007825032230
         H           -7.110919320000   -14.228953800000   -26.047479030000     1.007825032230
         H          -10.047343390000   -17.942002810000   -27.952115340000     1.007825032230
         H          -14.022264570000   -17.035209110000   -25.933310930000     1.007825032230
         C          -10.277019950000   -16.555407720000   -26.576594450000    12.000000000000
         C           -8.794027510000   -14.625735510000   -25.686671980000    12.000000000000
         C          -10.355332840000   -13.240567690000   -24.094974030000    12.000000000000

  Charge       = 0
  Multiplicity = 1
  Basis Set: AUG-CC-PVDZ
    Blend: AUG-CC-PVDZ
  Basis Set: (AUG-CC-PVDZ AUX)
    Blend: AUG-CC-PVDZ-JKFIT

    Orbital Energies [Eh]
    ---------------------

    Doubly Occupied:

       1A    -15.636233     2A    -15.592291     3A    -11.279903
       4A    -11.237759     5A    -11.209884     6A     -1.387001
       7A     -1.121894     8A     -1.066928     9A     -0.872759
      10A     -0.837039    11A     -0.757272    12A     -0.645745
      13A     -0.620828    14A     -0.609177    15A     -0.583905
      16A     -0.461413    17A     -0.370715    18A     -0.346055

  @DF-RHF Final Energy:  -224.76243506253383

   => Energetics <=

    Nuclear Repulsion Energy =            166.6286027946744355
    One-Electron Energy =                -633.5084733806323811
    Two-Electron Energy =                 242.1174355234241489
    Total Energy =                       -224.7624350625338252

  Dipole Moment: [D]
     X:     0.7394      Y:    -1.4336      Z:    -1.7871     Total:     2.4074

    SAPT Results
  --------------------------------------------------------------------------------------------------------
    Electrostatics                 -0.01065429 [mEh]      -0.00668567 [kcal/mol]      -0.02797283 [kJ/mol]
      Elst10,r                     -0.01065429 [mEh]      -0.00668567 [kcal/mol]      -0.02797283 [kJ/mol]

    Exchange                        0.00000000 [mEh]       0.00000000 [kcal/mol]       0.00000000 [kJ/mol]
      Exch10                        0.00000000 [mEh]       0.00000000 [kcal/mol]       0.00000000 [kJ/mol]
      Exch10(S^2)                   0.00000000 [mEh]       0.00000000 [kcal/mol]       0.00000000 [kJ/mol]

    Induction                       0.00005081 [mEh]       0.00003189 [kcal/mol]       0.00013341 [kJ/mol]
      Ind20,r                      -0.00004301 [mEh]      -0.00002699 [kcal/mol]      -0.00011294 [kJ/mol]
      Exch-Ind20,r                  0.00000000 [mEh]       0.00000000 [kcal/mol]       0.00000000 [kJ/mol]
      delta HF,r (2)                0.00009383 [mEh]       0.00005888 [kcal/mol]       0.00024634 [kJ/mol]

    Dispersion                     -0.00112840 [mEh]      -0.00070808 [kcal/mol]      -0.00296261 [kJ/mol]
      Disp20                       -0.00112840 [mEh]      -0.00070808 [kcal/mol]      -0.00296261 [kJ/mol]
      Exch-Disp20                   0.00000000 [mEh]       0.00000000 [kcal/mol]       0.00000000 [kJ/mol]
      Disp20 (SS)                  -0.00056420 [mEh]      -0.00035404 [kcal/mol]      -0.00148131 [kJ/mol]
      Disp20 (OS)                  -0.00056420 [mEh]      -0.00035404 [kcal/mol]      -0.00148131 [kJ/mol]
      Exch-Disp20 (SS)              0.00000000 [mEh]       0.00000000 [kcal/mol]       0.00000000 [kJ/mol]
      Exch-Disp20 (OS)              0.00000000 [mEh]       0.00000000 [kcal/mol]       0.00000000 [kJ/mol]

  Total HF                         -0.01060347 [mEh]      -0.00665378 [kcal/mol]      -0.02783942 [kJ/mol]
  Total SAPT0                      -0.01173187 [mEh]      -0.00736186 [kcal/mol]      -0.03080203 [kJ/mol]

  Special recipe for scaled SAPT0 (see Manual):
    Electrostatics sSAPT0          -0.01065429 [mEh]      -0.00668567 [kcal/mol]      -0.02797283 [kJ/mol]
    Exchange sSAPT0                 0.00000000 [mEh]       0.00000000 [kcal/mol]       0.00000000 [kJ/mol]
    Induction sSAPT0                0.00005081 [mEh]       0.00003189 [kcal/mol]       0.00013341 [kJ/mol]
    Dispersion sSAPT0              -0.00112840 [mEh]      -0.00070808 [kcal/mol]      -0.00296261 [kJ/mol]
  Total sSAPT0                     -0.01173187 [mEh]      -0.00736186 [kcal/mol]      -0.03080203 [kJ/mol]
  --------------------------------------------------------------------------------------------------------

*** Psi4 exiting successfully. Buy a developer a beer!
