                               Psi4 1.4rc3

  ==> Input File <==

--------------------------------------------------------------------------
# PSI4 file produced by CrystaLattE

# Generated from:               pyrazole.xyz
# Psithon input for N-mer:      2mer-0+490
# Number of atoms per monomer:  [9, 9]
# Number of replicas:           2
# COM priority:                 1.442160684344e-05
# Minimum COM separations:      21.740
# Separation priority:          1.912522360054e-05
# Minimum monomer separations:  19.788
# Cutoff priority:              5.114564915310e-07
# Nuclear repulsion energy:     364.7391306268539

memory 7 GB

molecule Dimer_0_490 {
  N            6.27981210      -4.25303372       0.19313865
  N            6.06870777      -2.28125697       1.80544317
  H            3.66871156      -5.64628941      -1.96684001
  H            0.69034521      -2.37545694      -0.42864236
  H            3.35917442       0.17650601       3.09265017
  H            7.35266782      -1.99461311       2.90680702
  C            3.77952586      -1.21508453       1.76858172
  C            2.38242998      -2.55505538       0.04607681
  C            4.01771468      -4.38410490      -0.88761863
--
  N          -24.67390184     -28.04090619      12.99225369
  N          -24.88500617     -26.06912944      14.60455822
  H          -27.28500238     -29.43416188      10.83227504
  H          -30.26336873     -26.16332941      12.37047268
  H          -27.59453951     -23.61136645      15.89176522
  H          -23.60104611     -25.78248557      15.70592207
  C          -27.17418808     -25.00295699      14.56769677
  C          -28.57128396     -26.34292785      12.84519186
  C          -26.93599925     -28.17197736      11.91149642
units = au
no_com
no_reorient
}

set {
  e_convergence 10
  d_convergence 10
  scf_type df
  mp2_type df
  cc_type df
  freeze_core true
}

energy('sapt0/aug-cc-pvdz')

--------------------------------------------------------------------------

  //              Dimer HF             //
    Molecular point group: c1
  Charge       = 0
  Multiplicity = 1
  Basis Set: AUG-CC-PVDZ
    Blend: AUG-CC-PVDZ
  Basis Set: (AUG-CC-PVDZ AUX)
    Blend: AUG-CC-PVDZ-JKFIT
  @DF-RHF Final Energy:  -449.52466761912842
    Total Energy =                       -449.5246676191284223
  //            Monomer A HF           //
    Molecular point group: c1
  Multiplicity = 1
  Basis Set: AUG-CC-PVDZ
    Blend: AUG-CC-PVDZ
  Basis Set: (AUG-CC-PVDZ AUX)
    Blend: AUG-CC-PVDZ-JKFIT
  @DF-RHF Final Energy:  -224.76233952099227
    Total Energy =                       -224.7623395209922705
  //            Monomer B HF           //
    Molecular point group: c1

    Geometry (in Bohr), charge = 0, multiplicity = 1:

       Center              X                  Y                   Z               Mass
    ------------   -----------------  -----------------  -----------------  -----------------
      Gh(N)           6.279812100000    -4.253033720000     0.193138650000    14.003074004430
      Gh(N)           6.068707770000    -2.281256970000     1.805443170000    14.003074004430
      Gh(H)           3.668711560000    -5.646289410000    -1.966840010000     1.007825032230
      Gh(H)           0.690345210000    -2.375456940000    -0.428642360000     1.007825032230
      Gh(H)           3.359174420000     0.176506010000     3.092650170000     1.007825032230
      Gh(H)           7.352667820000    -1.994613110000     2.906807020000     1.007825032230
      Gh(C)           3.779525860000    -1.215084530000     1.768581720000    12.000000000000
      Gh(C)           2.382429980000    -2.555055380000     0.046076810000    12.000000000000
      Gh(C)           4.017714680000    -4.384104900000    -0.887618630000    12.000000000000
         N          -24.673901840000   -28.040906190000    12.992253690000    14.003074004430
         N          -24.885006170000   -26.069129440000    14.604558220000    14.003074004430
         H          -27.285002380000   -29.434161880000    10.832275040000     1.007825032230
         H          -30.263368730000   -26.163329410000    12.370472680000     1.007825032230
         H          -27.594539510000   -23.611366450000    15.891765220000     1.007825032230
         H          -23.601046110000   -25.782485570000    15.705922070000     1.007825032230
         C          -27.174188080000   -25.002956990000    14.567696770000    12.000000000000
         C          -28.571283960000   -26.342927850000    12.845191860000    12.000000000000
         C          -26.935999250000   -28.171977360000    11.911496420000    12.000000000000

  Charge       = 0
  Multiplicity = 1
  Basis Set: AUG-CC-PVDZ
    Blend: AUG-CC-PVDZ
  Basis Set: (AUG-CC-PVDZ AUX)
    Blend: AUG-CC-PVDZ-JKFIT

    Orbital Energies [Eh]
    ---------------------

    Doubly Occupied:

       1A    -15.636223     2A    -15.592313     3A    -11.279894
       4A    -11.237784     5A    -11.209891     6A     -1.386922
       7A     -1.121901     8A     -1.066898     9A     -0.872768
      10A     -0.837061    11A     -0.757292    12A     -0.645746
      13A     -0.620834    14A     -0.609140    15A     -0.583920
      16A     -0.461404    17A     -0.370721    18A     -0.346048

  @DF-RHF Final Energy:  -224.76233952547847

   => Energetics <=

    Nuclear Repulsion Energy =            166.6240563795531386
    One-Electron Energy =                -633.4992732675518710
    Two-Electron Energy =                 242.1128773625202371
    Total Energy =                       -224.7623395254784668

  Dipole Moment: [D]
     X:    -1.0235      Y:     1.6055      Z:     1.4733     Total:     2.4075

    SAPT Results
  --------------------------------------------------------------------------------------------------------
    Electrostatics                  0.01137681 [mEh]       0.00713906 [kcal/mol]       0.02986981 [kJ/mol]
      Elst10,r                      0.01137681 [mEh]       0.00713906 [kcal/mol]       0.02986981 [kJ/mol]

    Exchange                        0.00000000 [mEh]       0.00000000 [kcal/mol]       0.00000000 [kJ/mol]
      Exch10                        0.00000000 [mEh]       0.00000000 [kcal/mol]       0.00000000 [kJ/mol]
      Exch10(S^2)                   0.00000000 [mEh]       0.00000000 [kcal/mol]       0.00000000 [kJ/mol]

    Induction                       0.00005053 [mEh]       0.00003171 [kcal/mol]       0.00013267 [kJ/mol]
      Ind20,r                      -0.00001033 [mEh]      -0.00000648 [kcal/mol]      -0.00002712 [kJ/mol]
      Exch-Ind20,r                  0.00000000 [mEh]       0.00000000 [kcal/mol]       0.00000000 [kJ/mol]
      delta HF,r (2)                0.00006086 [mEh]       0.00003819 [kcal/mol]       0.00015979 [kJ/mol]

    Dispersion                     -0.00021411 [mEh]      -0.00013435 [kcal/mol]      -0.00056213 [kJ/mol]
      Disp20                       -0.00021411 [mEh]      -0.00013435 [kcal/mol]      -0.00056213 [kJ/mol]
      Exch-Disp20                   0.00000000 [mEh]       0.00000000 [kcal/mol]       0.00000000 [kJ/mol]
      Disp20 (SS)                  -0.00010705 [mEh]      -0.00006718 [kcal/mol]      -0.00028107 [kJ/mol]
      Disp20 (OS)                  -0.00010705 [mEh]      -0.00006718 [kcal/mol]      -0.00028107 [kJ/mol]
      Exch-Disp20 (SS)              0.00000000 [mEh]       0.00000000 [kcal/mol]       0.00000000 [kJ/mol]
      Exch-Disp20 (OS)              0.00000000 [mEh]       0.00000000 [kcal/mol]       0.00000000 [kJ/mol]

  Total HF                          0.01142734 [mEh]       0.00717077 [kcal/mol]       0.03000248 [kJ/mol]
  Total SAPT0                       0.01121324 [mEh]       0.00703641 [kcal/mol]       0.02944035 [kJ/mol]

  Special recipe for scaled SAPT0 (see Manual):
    Electrostatics sSAPT0           0.01137681 [mEh]       0.00713906 [kcal/mol]       0.02986981 [kJ/mol]
    Exchange sSAPT0                 0.00000000 [mEh]       0.00000000 [kcal/mol]       0.00000000 [kJ/mol]
    Induction sSAPT0                0.00005053 [mEh]       0.00003171 [kcal/mol]       0.00013267 [kJ/mol]
    Dispersion sSAPT0              -0.00021411 [mEh]      -0.00013435 [kcal/mol]      -0.00056213 [kJ/mol]
  Total sSAPT0                      0.01121324 [mEh]       0.00703641 [kcal/mol]       0.02944035 [kJ/mol]
  --------------------------------------------------------------------------------------------------------

*** Psi4 exiting successfully. Buy a developer a beer!
