                               Psi4 1.4rc3

  ==> Input File <==

--------------------------------------------------------------------------
# PSI4 file produced by CrystaLattE

# Generated from:               pyrazole.xyz
# Psithon input for N-mer:      2mer-0+404
# Number of atoms per monomer:  [9, 9]
# Number of replicas:           1
# COM priority:                 1.297408431034e-05
# Minimum COM separations:      22.520
# Separation priority:          2.082955438678e-05
# Minimum monomer separations:  19.233
# Cutoff priority:              5.731126203846e-07
# Nuclear repulsion energy:     363.7289372118642

memory 7 GB

molecule Dimer_0_404 {
  N            6.27981210      -4.25303372       0.19313865
  N            6.06870777      -2.28125697       1.80544317
  H            3.66871156      -5.64628941      -1.96684001
  H            0.69034521      -2.37545694      -0.42864236
  H            3.35917442       0.17650601       3.09265017
  H            7.35266782      -1.99461311       2.90680702
  C            3.77952586      -1.21508453       1.76858172
  C            2.38242998      -2.55505538       0.04607681
  C            4.01771468      -4.38410490      -0.88761863
--
  N           -4.94029013      38.08271867      -1.54178140
  N           -4.82142787      40.12062570      -0.00460768
  H           -2.26712739      35.68180870      -2.25981175
  H            0.62750917      38.12434745       0.49532575
  H           -2.30891491      41.83739646       2.39996206
  H           -6.28383608      40.93060276       0.38115765
  C           -2.53859146      40.45080137       1.02444117
  C           -1.05559903      38.52112916       0.13451870
  C           -2.61690436      37.13596134      -1.45717925
units = au
no_com
no_reorient
}

set {
  e_convergence 10
  d_convergence 10
  scf_type df
  mp2_type df
  cc_type df
  freeze_core true
}

energy('sapt0/aug-cc-pvdz')

--------------------------------------------------------------------------

  //              Dimer HF             //
    Molecular point group: c1
  Charge       = 0
  Multiplicity = 1
  Basis Set: AUG-CC-PVDZ
    Blend: AUG-CC-PVDZ
  Basis Set: (AUG-CC-PVDZ AUX)
    Blend: AUG-CC-PVDZ-JKFIT
  @DF-RHF Final Energy:  -449.52477681064312
    Total Energy =                       -449.5247768106431749
  //            Monomer A HF           //
    Molecular point group: c1
  Multiplicity = 1
  Basis Set: AUG-CC-PVDZ
    Blend: AUG-CC-PVDZ
  Basis Set: (AUG-CC-PVDZ AUX)
    Blend: AUG-CC-PVDZ-JKFIT
  @DF-RHF Final Energy:  -224.76233952155940
    Total Energy =                       -224.7623395215593973
  //            Monomer B HF           //
    Molecular point group: c1

    Geometry (in Bohr), charge = 0, multiplicity = 1:

       Center              X                  Y                   Z               Mass
    ------------   -----------------  -----------------  -----------------  -----------------
      Gh(N)           6.279812100000    -4.253033720000     0.193138650000    14.003074004430
      Gh(N)           6.068707770000    -2.281256970000     1.805443170000    14.003074004430
      Gh(H)           3.668711560000    -5.646289410000    -1.966840010000     1.007825032230
      Gh(H)           0.690345210000    -2.375456940000    -0.428642360000     1.007825032230
      Gh(H)           3.359174420000     0.176506010000     3.092650170000     1.007825032230
      Gh(H)           7.352667820000    -1.994613110000     2.906807020000     1.007825032230
      Gh(C)           3.779525860000    -1.215084530000     1.768581720000    12.000000000000
      Gh(C)           2.382429980000    -2.555055380000     0.046076810000    12.000000000000
      Gh(C)           4.017714680000    -4.384104900000    -0.887618630000    12.000000000000
         N           -4.940290130000    38.082718670000    -1.541781400000    14.003074004430
         N           -4.821427870000    40.120625700000    -0.004607680000    14.003074004430
         H           -2.267127390000    35.681808700000    -2.259811750000     1.007825032230
         H            0.627509170000    38.124347450000     0.495325750000     1.007825032230
         H           -2.308914910000    41.837396460000     2.399962060000     1.007825032230
         H           -6.283836080000    40.930602760000     0.381157650000     1.007825032230
         C           -2.538591460000    40.450801370000     1.024441170000    12.000000000000
         C           -1.055599030000    38.521129160000     0.134518700000    12.000000000000
         C           -2.616904360000    37.135961340000    -1.457179250000    12.000000000000

  Charge       = 0
  Multiplicity = 1
  Basis Set: AUG-CC-PVDZ
    Blend: AUG-CC-PVDZ
  Basis Set: (AUG-CC-PVDZ AUX)
    Blend: AUG-CC-PVDZ-JKFIT

    Orbital Energies [Eh]
    ---------------------

    Doubly Occupied:

       1A    -15.636233     2A    -15.592291     3A    -11.279903
       4A    -11.237759     5A    -11.209884     6A     -1.387001
       7A     -1.121894     8A     -1.066928     9A     -0.872759
      10A     -0.837039    11A     -0.757272    12A     -0.645745
      13A     -0.620828    14A     -0.609177    15A     -0.583905
      16A     -0.461413    17A     -0.370715    18A     -0.346055

  @DF-RHF Final Energy:  -224.76243506146912

   => Energetics <=

    Nuclear Repulsion Energy =            166.6286027459928789
    One-Electron Energy =                -633.5084732734469526
    Two-Electron Energy =                 242.1174354659849257
    Total Energy =                       -224.7624350614691195

  Dipole Moment: [D]
     X:     0.7394      Y:     1.4336      Z:     1.7871     Total:     2.4074

    SAPT Results
  --------------------------------------------------------------------------------------------------------
    Electrostatics                 -0.00227953 [mEh]      -0.00143043 [kcal/mol]      -0.00598490 [kJ/mol]
      Elst10,r                     -0.00227953 [mEh]      -0.00143043 [kcal/mol]      -0.00598490 [kJ/mol]

    Exchange                        0.00000000 [mEh]       0.00000000 [kcal/mol]       0.00000000 [kJ/mol]
      Exch10                        0.00000000 [mEh]       0.00000000 [kcal/mol]       0.00000000 [kJ/mol]
      Exch10(S^2)                   0.00000000 [mEh]       0.00000000 [kcal/mol]       0.00000000 [kJ/mol]

    Induction                       0.00005191 [mEh]       0.00003258 [kcal/mol]       0.00013630 [kJ/mol]
      Ind20,r                      -0.00001067 [mEh]      -0.00000670 [kcal/mol]      -0.00002801 [kJ/mol]
      Exch-Ind20,r                  0.00000000 [mEh]       0.00000000 [kcal/mol]       0.00000000 [kJ/mol]
      delta HF,r (2)                0.00006258 [mEh]       0.00003927 [kcal/mol]       0.00016431 [kJ/mol]

    Dispersion                     -0.00020119 [mEh]      -0.00012625 [kcal/mol]      -0.00052822 [kJ/mol]
      Disp20                       -0.00020119 [mEh]      -0.00012625 [kcal/mol]      -0.00052822 [kJ/mol]
      Exch-Disp20                   0.00000000 [mEh]       0.00000000 [kcal/mol]       0.00000000 [kJ/mol]
      Disp20 (SS)                  -0.00010059 [mEh]      -0.00006312 [kcal/mol]      -0.00026411 [kJ/mol]
      Disp20 (OS)                  -0.00010059 [mEh]      -0.00006312 [kcal/mol]      -0.00026411 [kJ/mol]
      Exch-Disp20 (SS)              0.00000000 [mEh]       0.00000000 [kcal/mol]       0.00000000 [kJ/mol]
      Exch-Disp20 (OS)              0.00000000 [mEh]       0.00000000 [kcal/mol]       0.00000000 [kJ/mol]

  Total HF                         -0.00222761 [mEh]      -0.00139785 [kcal/mol]      -0.00584860 [kJ/mol]
  Total SAPT0                      -0.00242880 [mEh]      -0.00152410 [kcal/mol]      -0.00637682 [kJ/mol]

  Special recipe for scaled SAPT0 (see Manual):
    Electrostatics sSAPT0          -0.00227953 [mEh]      -0.00143043 [kcal/mol]      -0.00598490 [kJ/mol]
    Exchange sSAPT0                 0.00000000 [mEh]       0.00000000 [kcal/mol]       0.00000000 [kJ/mol]
    Induction sSAPT0                0.00005191 [mEh]       0.00003258 [kcal/mol]       0.00013630 [kJ/mol]
    Dispersion sSAPT0              -0.00020119 [mEh]      -0.00012625 [kcal/mol]      -0.00052822 [kJ/mol]
  Total sSAPT0                     -0.00242880 [mEh]      -0.00152410 [kcal/mol]      -0.00637682 [kJ/mol]
  --------------------------------------------------------------------------------------------------------

*** Psi4 exiting successfully. Buy a developer a beer!
