                               Psi4 1.4rc3

  ==> Input File <==

--------------------------------------------------------------------------
# PSI4 file produced by CrystaLattE

# Generated from:               pyrazole.xyz
# Psithon input for N-mer:      2mer-0+501
# Number of atoms per monomer:  [9, 9]
# Number of replicas:           1
# COM priority:                 2.243738076252e-05
# Minimum COM separations:      18.762
# Separation priority:          3.440443304440e-05
# Minimum monomer separations:  16.270
# Cutoff priority:              1.118971968891e-06
# Nuclear repulsion energy:     369.749213740392

memory 7 GB

molecule Dimer_0_501 {
  N            6.27981210      -4.25303372       0.19313865
  N            6.06870777      -2.28125697       1.80544317
  H            3.66871156      -5.64628941      -1.96684001
  H            0.69034521      -2.37545694      -0.42864236
  H            3.35917442       0.17650601       3.09265017
  H            7.35266782      -1.99461311       2.90680702
  C            3.77952586      -1.21508453       1.76858172
  C            2.38242998      -2.55505538       0.04607681
  C            4.01771468      -4.38410490      -0.88761863
--
  N           33.75185229     -14.18732502      14.38697326
  N           33.87071455     -16.22523205      12.84979954
  H           36.42501503     -11.78641505      15.10500361
  H           39.31965158     -14.22895380      12.34986611
  H           36.38322751     -17.94200281      10.44522980
  H           32.40830634     -17.03520911      12.46403422
  C           36.15355095     -16.55540772      11.82075069
  C           37.63654339     -14.62573551      12.71067316
  C           36.07523806     -13.24056769      14.30237111
units = au
no_com
no_reorient
}

set {
  e_convergence 10
  d_convergence 10
  scf_type df
  mp2_type df
  cc_type df
  freeze_core true
}

energy('sapt0/aug-cc-pvdz')

--------------------------------------------------------------------------

  //              Dimer HF             //
    Molecular point group: c1
  Charge       = 0
  Multiplicity = 1
  Basis Set: AUG-CC-PVDZ
    Blend: AUG-CC-PVDZ
  Basis Set: (AUG-CC-PVDZ AUX)
    Blend: AUG-CC-PVDZ-JKFIT
  @DF-RHF Final Energy:  -449.52479930583121
    Total Energy =                       -449.5247993058311522
  //            Monomer A HF           //
    Molecular point group: c1
  Multiplicity = 1
  Basis Set: AUG-CC-PVDZ
    Blend: AUG-CC-PVDZ
  Basis Set: (AUG-CC-PVDZ AUX)
    Blend: AUG-CC-PVDZ-JKFIT
  @DF-RHF Final Energy:  -224.76233952237513
    Total Energy =                       -224.7623395223751288
  //            Monomer B HF           //
    Molecular point group: c1

    Geometry (in Bohr), charge = 0, multiplicity = 1:

       Center              X                  Y                   Z               Mass
    ------------   -----------------  -----------------  -----------------  -----------------
      Gh(N)           6.279812100000    -4.253033720000     0.193138650000    14.003074004430
      Gh(N)           6.068707770000    -2.281256970000     1.805443170000    14.003074004430
      Gh(H)           3.668711560000    -5.646289410000    -1.966840010000     1.007825032230
      Gh(H)           0.690345210000    -2.375456940000    -0.428642360000     1.007825032230
      Gh(H)           3.359174420000     0.176506010000     3.092650170000     1.007825032230
      Gh(H)           7.352667820000    -1.994613110000     2.906807020000     1.007825032230
      Gh(C)           3.779525860000    -1.215084530000     1.768581720000    12.000000000000
      Gh(C)           2.382429980000    -2.555055380000     0.046076810000    12.000000000000
      Gh(C)           4.017714680000    -4.384104900000    -0.887618630000    12.000000000000
         N           33.751852290000   -14.187325020000    14.386973260000    14.003074004430
         N           33.870714550000   -16.225232050000    12.849799540000    14.003074004430
         H           36.425015030000   -11.786415050000    15.105003610000     1.007825032230
         H           39.319651580000   -14.228953800000    12.349866110000     1.007825032230
         H           36.383227510000   -17.942002810000    10.445229800000     1.007825032230
         H           32.408306340000   -17.035209110000    12.464034220000     1.007825032230
         C           36.153550950000   -16.555407720000    11.820750690000    12.000000000000
         C           37.636543390000   -14.625735510000    12.710673160000    12.000000000000
         C           36.075238060000   -13.240567690000    14.302371110000    12.000000000000

  Charge       = 0
  Multiplicity = 1
  Basis Set: AUG-CC-PVDZ
    Blend: AUG-CC-PVDZ
  Basis Set: (AUG-CC-PVDZ AUX)
    Blend: AUG-CC-PVDZ-JKFIT

    Orbital Energies [Eh]
    ---------------------

    Doubly Occupied:

       1A    -15.636233     2A    -15.592291     3A    -11.279903
       4A    -11.237759     5A    -11.209884     6A     -1.387001
       7A     -1.121894     8A     -1.066928     9A     -0.872759
      10A     -0.837039    11A     -0.757272    12A     -0.645745
      13A     -0.620828    14A     -0.609177    15A     -0.583905
      16A     -0.461413    17A     -0.370715    18A     -0.346055

  @DF-RHF Final Energy:  -224.76243506130592

   => Energetics <=

    Nuclear Repulsion Energy =            166.6286028245123987
    One-Electron Energy =                -633.5084734231850234
    Two-Electron Energy =                 242.1174355373666742
    Total Energy =                       -224.7624350613059221

  Dipole Moment: [D]
     X:     0.7394      Y:    -1.4336      Z:    -1.7871     Total:     2.4074

    SAPT Results
  --------------------------------------------------------------------------------------------------------
    Electrostatics                 -0.02472383 [mEh]      -0.01551444 [kcal/mol]      -0.06491240 [kJ/mol]
      Elst10,r                     -0.02472383 [mEh]      -0.01551444 [kcal/mol]      -0.06491240 [kJ/mol]

    Exchange                        0.00000000 [mEh]       0.00000000 [kcal/mol]       0.00000000 [kJ/mol]
      Exch10                        0.00000000 [mEh]       0.00000000 [kcal/mol]       0.00000000 [kJ/mol]
      Exch10(S^2)                   0.00000000 [mEh]       0.00000000 [kcal/mol]       0.00000000 [kJ/mol]

    Induction                       0.00000168 [mEh]       0.00000105 [kcal/mol]       0.00000441 [kJ/mol]
      Ind20,r                      -0.00003979 [mEh]      -0.00002497 [kcal/mol]      -0.00010446 [kJ/mol]
      Exch-Ind20,r                  0.00000000 [mEh]       0.00000000 [kcal/mol]       0.00000000 [kJ/mol]
      delta HF,r (2)                0.00004147 [mEh]       0.00002602 [kcal/mol]       0.00010887 [kJ/mol]

    Dispersion                     -0.00056895 [mEh]      -0.00035702 [kcal/mol]      -0.00149379 [kJ/mol]
      Disp20                       -0.00056895 [mEh]      -0.00035702 [kcal/mol]      -0.00149379 [kJ/mol]
      Exch-Disp20                   0.00000000 [mEh]       0.00000000 [kcal/mol]       0.00000000 [kJ/mol]
      Disp20 (SS)                  -0.00028448 [mEh]      -0.00017851 [kcal/mol]      -0.00074689 [kJ/mol]
      Disp20 (OS)                  -0.00028448 [mEh]      -0.00017851 [kcal/mol]      -0.00074689 [kJ/mol]
      Exch-Disp20 (SS)              0.00000000 [mEh]       0.00000000 [kcal/mol]       0.00000000 [kJ/mol]
      Exch-Disp20 (OS)              0.00000000 [mEh]       0.00000000 [kcal/mol]       0.00000000 [kJ/mol]

  Total HF                         -0.02472215 [mEh]      -0.01551338 [kcal/mol]      -0.06490800 [kJ/mol]
  Total SAPT0                      -0.02529110 [mEh]      -0.01587041 [kcal/mol]      -0.06640178 [kJ/mol]

  Special recipe for scaled SAPT0 (see Manual):
    Electrostatics sSAPT0          -0.02472383 [mEh]      -0.01551444 [kcal/mol]      -0.06491240 [kJ/mol]
    Exchange sSAPT0                 0.00000000 [mEh]       0.00000000 [kcal/mol]       0.00000000 [kJ/mol]
    Induction sSAPT0                0.00000168 [mEh]       0.00000105 [kcal/mol]       0.00000441 [kJ/mol]
    Dispersion sSAPT0              -0.00056895 [mEh]      -0.00035702 [kcal/mol]      -0.00149379 [kJ/mol]
  Total sSAPT0                     -0.02529110 [mEh]      -0.01587041 [kcal/mol]      -0.06640178 [kJ/mol]
  --------------------------------------------------------------------------------------------------------

*** Psi4 exiting successfully. Buy a developer a beer!
