                               Psi4 1.4rc3

  ==> Input File <==

--------------------------------------------------------------------------
# PSI4 file produced by CrystaLattE

# Generated from:               pyrazole.xyz
# Psithon input for N-mer:      2mer-0+91
# Number of atoms per monomer:  [9, 9]
# Number of replicas:           1
# COM priority:                 8.348745391392e-05
# Minimum COM separations:      12.108
# Separation priority:          2.073482731555e-04
# Minimum monomer separations:  8.941
# Cutoff priority:              1.227252419798e-05
# Nuclear repulsion energy:     390.1249100370442

memory 7 GB

molecule Dimer_0_91 {
  N            6.27981210      -4.25303372       0.19313865
  N            6.06870777      -2.28125697       1.80544317
  H            3.66871156      -5.64628941      -1.96684001
  H            0.69034521      -2.37545694      -0.42864236
  H            3.35917442       0.17650601       3.09265017
  H            7.35266782      -1.99461311       2.90680702
  C            3.77952586      -1.21508453       1.76858172
  C            2.38242998      -2.55505538       0.04607681
  C            4.01771468      -4.38410490      -0.88761863
--
  N           10.53656684      14.29484620      11.25733365
  N           10.65542910      16.33275324      12.79450737
  H           13.20972957      11.89393623      10.53930329
  H           16.10436613      14.33647498      13.29444080
  H           13.16794206      18.04952399      15.19907711
  H            9.19302089      17.14273029      13.18027269
  C           12.93826550      16.66292891      13.82355622
  C           14.42125794      14.73325669      12.93363375
  C           12.85995261      13.34808888      11.34193580
units = au
no_com
no_reorient
}

set {
  e_convergence 10
  d_convergence 10
  scf_type df
  mp2_type df
  cc_type df
  freeze_core true
}

energy('sapt0/aug-cc-pvdz')

--------------------------------------------------------------------------

  //              Dimer HF             //
    Molecular point group: c1
  Charge       = 0
  Multiplicity = 1
  Basis Set: AUG-CC-PVDZ
    Blend: AUG-CC-PVDZ
  Basis Set: (AUG-CC-PVDZ AUX)
    Blend: AUG-CC-PVDZ-JKFIT
  @DF-RHF Final Energy:  -449.52493009697605
    Total Energy =                       -449.5249300969760498
  //            Monomer A HF           //
    Molecular point group: c1
  Multiplicity = 1
  Basis Set: AUG-CC-PVDZ
    Blend: AUG-CC-PVDZ
  Basis Set: (AUG-CC-PVDZ AUX)
    Blend: AUG-CC-PVDZ-JKFIT
  @DF-RHF Final Energy:  -224.76234130192216
    Total Energy =                       -224.7623413019221630
  //            Monomer B HF           //
    Molecular point group: c1

    Geometry (in Bohr), charge = 0, multiplicity = 1:

       Center              X                  Y                   Z               Mass
    ------------   -----------------  -----------------  -----------------  -----------------
      Gh(N)           6.279812100000    -4.253033720000     0.193138650000    14.003074004430
      Gh(N)           6.068707770000    -2.281256970000     1.805443170000    14.003074004430
      Gh(H)           3.668711560000    -5.646289410000    -1.966840010000     1.007825032230
      Gh(H)           0.690345210000    -2.375456940000    -0.428642360000     1.007825032230
      Gh(H)           3.359174420000     0.176506010000     3.092650170000     1.007825032230
      Gh(H)           7.352667820000    -1.994613110000     2.906807020000     1.007825032230
      Gh(C)           3.779525860000    -1.215084530000     1.768581720000    12.000000000000
      Gh(C)           2.382429980000    -2.555055380000     0.046076810000    12.000000000000
      Gh(C)           4.017714680000    -4.384104900000    -0.887618630000    12.000000000000
         N           10.536566840000    14.294846200000    11.257333650000    14.003074004430
         N           10.655429100000    16.332753240000    12.794507370000    14.003074004430
         H           13.209729570000    11.893936230000    10.539303290000     1.007825032230
         H           16.104366130000    14.336474980000    13.294440800000     1.007825032230
         H           13.167942060000    18.049523990000    15.199077110000     1.007825032230
         H            9.193020890000    17.142730290000    13.180272690000     1.007825032230
         C           12.938265500000    16.662928910000    13.823556220000    12.000000000000
         C           14.421257940000    14.733256690000    12.933633750000    12.000000000000
         C           12.859952610000    13.348088880000    11.341935800000    12.000000000000

  Charge       = 0
  Multiplicity = 1
  Basis Set: AUG-CC-PVDZ
    Blend: AUG-CC-PVDZ
  Basis Set: (AUG-CC-PVDZ AUX)
    Blend: AUG-CC-PVDZ-JKFIT

    Orbital Energies [Eh]
    ---------------------

    Doubly Occupied:

       1A    -15.636233     2A    -15.592291     3A    -11.279903
       4A    -11.237753     5A    -11.209882     6A     -1.387001
       7A     -1.121893     8A     -1.066927     9A     -0.872759
      10A     -0.837039    11A     -0.757272    12A     -0.645745
      13A     -0.620828    14A     -0.609177    15A     -0.583905
      16A     -0.461413    17A     -0.370715    18A     -0.346054

  @DF-RHF Final Energy:  -224.76243972953296

   => Energetics <=

    Nuclear Repulsion Energy =            166.6286027510282111
    One-Electron Energy =                -633.5085041268752093
    Two-Electron Energy =                 242.1174616463140410
    Total Energy =                       -224.7624397295329572

  Dipole Moment: [D]
     X:     0.7394      Y:     1.4336      Z:     1.7871     Total:     2.4074

    SAPT Results
  --------------------------------------------------------------------------------------------------------
    Electrostatics                 -0.14771166 [mEh]      -0.09269047 [kcal/mol]      -0.38781692 [kJ/mol]
      Elst10,r                     -0.14771166 [mEh]      -0.09269047 [kcal/mol]      -0.38781692 [kJ/mol]

    Exchange                       -0.00000008 [mEh]      -0.00000005 [kcal/mol]      -0.00000021 [kJ/mol]
      Exch10                       -0.00000008 [mEh]      -0.00000005 [kcal/mol]      -0.00000021 [kJ/mol]
      Exch10(S^2)                  -0.00000008 [mEh]      -0.00000005 [kcal/mol]      -0.00000021 [kJ/mol]

    Induction                      -0.00135378 [mEh]      -0.00084951 [kcal/mol]      -0.00355434 [kJ/mol]
      Ind20,r                      -0.00145565 [mEh]      -0.00091343 [kcal/mol]      -0.00382180 [kJ/mol]
      Exch-Ind20,r                  0.00000333 [mEh]       0.00000209 [kcal/mol]       0.00000874 [kJ/mol]
      delta HF,r (2)                0.00009854 [mEh]       0.00006184 [kcal/mol]       0.00025872 [kJ/mol]

    Dispersion                     -0.01008480 [mEh]      -0.00632831 [kcal/mol]      -0.02647765 [kJ/mol]
      Disp20                       -0.01008520 [mEh]      -0.00632856 [kcal/mol]      -0.02647868 [kJ/mol]
      Exch-Disp20                   0.00000039 [mEh]       0.00000025 [kcal/mol]       0.00000103 [kJ/mol]
      Disp20 (SS)                  -0.00504260 [mEh]      -0.00316428 [kcal/mol]      -0.01323934 [kJ/mol]
      Disp20 (OS)                  -0.00504260 [mEh]      -0.00316428 [kcal/mol]      -0.01323934 [kJ/mol]
      Exch-Disp20 (SS)              0.00000033 [mEh]       0.00000021 [kcal/mol]       0.00000086 [kJ/mol]
      Exch-Disp20 (OS)              0.00000006 [mEh]       0.00000004 [kcal/mol]       0.00000017 [kJ/mol]

  Total HF                         -0.14906552 [mEh]      -0.09354003 [kcal/mol]      -0.39137147 [kJ/mol]
  Total SAPT0                      -0.15915033 [mEh]      -0.09986834 [kcal/mol]      -0.41784912 [kJ/mol]

  Special recipe for scaled SAPT0 (see Manual):
    Electrostatics sSAPT0          -0.14771166 [mEh]      -0.09269047 [kcal/mol]      -0.38781692 [kJ/mol]
    Exchange sSAPT0                -0.00000008 [mEh]      -0.00000005 [kcal/mol]      -0.00000021 [kJ/mol]
    Induction sSAPT0               -0.00135378 [mEh]      -0.00084951 [kcal/mol]      -0.00355434 [kJ/mol]
    Dispersion sSAPT0              -0.01008480 [mEh]      -0.00632831 [kcal/mol]      -0.02647765 [kJ/mol]
  Total sSAPT0                     -0.15915033 [mEh]      -0.09986834 [kcal/mol]      -0.41784912 [kJ/mol]
  --------------------------------------------------------------------------------------------------------

*** Psi4 exiting successfully. Buy a developer a beer!
