                               Psi4 1.4rc3

  ==> Input File <==

--------------------------------------------------------------------------
# PSI4 file produced by CrystaLattE

# Generated from:               pyrazole.xyz
# Psithon input for N-mer:      2mer-0+189
# Number of atoms per monomer:  [9, 9]
# Number of replicas:           1
# COM priority:                 5.531906481041e-05
# Minimum COM separations:      13.888
# Separation priority:          9.517316017545e-05
# Minimum monomer separations:  11.590
# Cutoff priority:              4.345295542978e-06
# Nuclear repulsion energy:     382.4752944666634

memory 7 GB

molecule Dimer_0_189 {
  N            6.27981210      -4.25303372       0.19313865
  N            6.06870777      -2.28125697       1.80544317
  H            3.66871156      -5.64628941      -1.96684001
  H            0.69034521      -2.37545694      -0.42864236
  H            3.35917442       0.17650601       3.09265017
  H            7.35266782      -1.99461311       2.90680702
  C            3.77952586      -1.21508453       1.76858172
  C            2.38242998      -2.55505538       0.04607681
  C            4.01771468      -4.38410490      -0.88761863
--
  N            2.79813836     -21.38696250     -17.61081436
  N            2.91700062     -19.34905546     -19.14798808
  H            5.47130109     -23.78787247     -16.89278400
  H            8.36593765     -21.34533372     -19.64792151
  H            5.42951358     -17.63228471     -21.55255782
  H            1.45459240     -18.53907841     -19.53375340
  C            5.19983702     -19.01887980     -20.17703693
  C            6.68282945     -20.94855201     -19.28711446
  C            5.12152412     -22.33371982     -17.69541651
units = au
no_com
no_reorient
}

set {
  e_convergence 10
  d_convergence 10
  scf_type df
  mp2_type df
  cc_type df
  freeze_core true
}

energy('sapt0/aug-cc-pvdz')

--------------------------------------------------------------------------

  //              Dimer HF             //
    Molecular point group: c1
  Charge       = 0
  Multiplicity = 1
  Basis Set: AUG-CC-PVDZ
    Blend: AUG-CC-PVDZ
  Basis Set: (AUG-CC-PVDZ AUX)
    Blend: AUG-CC-PVDZ-JKFIT
  @DF-RHF Final Energy:  -449.52475552565045
    Total Energy =                       -449.5247555256504484
  //            Monomer A HF           //
    Molecular point group: c1
  Multiplicity = 1
  Basis Set: AUG-CC-PVDZ
    Blend: AUG-CC-PVDZ
  Basis Set: (AUG-CC-PVDZ AUX)
    Blend: AUG-CC-PVDZ-JKFIT
  @DF-RHF Final Energy:  -224.76233954471368
    Total Energy =                       -224.7623395447136829
  //            Monomer B HF           //
    Molecular point group: c1

    Geometry (in Bohr), charge = 0, multiplicity = 1:

       Center              X                  Y                   Z               Mass
    ------------   -----------------  -----------------  -----------------  -----------------
      Gh(N)           6.279812100000    -4.253033720000     0.193138650000    14.003074004430
      Gh(N)           6.068707770000    -2.281256970000     1.805443170000    14.003074004430
      Gh(H)           3.668711560000    -5.646289410000    -1.966840010000     1.007825032230
      Gh(H)           0.690345210000    -2.375456940000    -0.428642360000     1.007825032230
      Gh(H)           3.359174420000     0.176506010000     3.092650170000     1.007825032230
      Gh(H)           7.352667820000    -1.994613110000     2.906807020000     1.007825032230
      Gh(C)           3.779525860000    -1.215084530000     1.768581720000    12.000000000000
      Gh(C)           2.382429980000    -2.555055380000     0.046076810000    12.000000000000
      Gh(C)           4.017714680000    -4.384104900000    -0.887618630000    12.000000000000
         N            2.798138360000   -21.386962500000   -17.610814360000    14.003074004430
         N            2.917000620000   -19.349055460000   -19.147988080000    14.003074004430
         H            5.471301090000   -23.787872470000   -16.892784000000     1.007825032230
         H            8.365937650000   -21.345333720000   -19.647921510000     1.007825032230
         H            5.429513580000   -17.632284710000   -21.552557820000     1.007825032230
         H            1.454592400000   -18.539078410000   -19.533753400000     1.007825032230
         C            5.199837020000   -19.018879800000   -20.177036930000    12.000000000000
         C            6.682829450000   -20.948552010000   -19.287114460000    12.000000000000
         C            5.121524120000   -22.333719820000   -17.695416510000    12.000000000000

  Charge       = 0
  Multiplicity = 1
  Basis Set: AUG-CC-PVDZ
    Blend: AUG-CC-PVDZ
  Basis Set: (AUG-CC-PVDZ AUX)
    Blend: AUG-CC-PVDZ-JKFIT

    Orbital Energies [Eh]
    ---------------------

    Doubly Occupied:

       1A    -15.636233     2A    -15.592291     3A    -11.279903
       4A    -11.237759     5A    -11.209884     6A     -1.387001
       7A     -1.121894     8A     -1.066928     9A     -0.872759
      10A     -0.837039    11A     -0.757272    12A     -0.645745
      13A     -0.620828    14A     -0.609177    15A     -0.583905
      16A     -0.461413    17A     -0.370715    18A     -0.346055

  @DF-RHF Final Energy:  -224.76243513250080

   => Energetics <=

    Nuclear Repulsion Energy =            166.6286029219856459
    One-Electron Energy =                -633.5084740517222599
    Two-Electron Energy =                 242.1174359972358161
    Total Energy =                       -224.7624351325007979

  Dipole Moment: [D]
     X:     0.7394      Y:     1.4336      Z:    -1.7871     Total:     2.4074

    SAPT Results
  --------------------------------------------------------------------------------------------------------
    Electrostatics                  0.01922780 [mEh]       0.01206563 [kcal/mol]       0.05048259 [kJ/mol]
      Elst10,r                      0.01922780 [mEh]       0.01206563 [kcal/mol]       0.05048259 [kJ/mol]

    Exchange                        0.00000013 [mEh]       0.00000008 [kcal/mol]       0.00000035 [kJ/mol]
      Exch10                        0.00000013 [mEh]       0.00000008 [kcal/mol]       0.00000035 [kJ/mol]
      Exch10(S^2)                   0.00000013 [mEh]       0.00000008 [kcal/mol]       0.00000035 [kJ/mol]

    Induction                      -0.00007637 [mEh]      -0.00004793 [kcal/mol]      -0.00020052 [kJ/mol]
      Ind20,r                      -0.00019570 [mEh]      -0.00012281 [kcal/mol]      -0.00051382 [kJ/mol]
      Exch-Ind20,r                  0.00000020 [mEh]       0.00000012 [kcal/mol]       0.00000052 [kJ/mol]
      delta HF,r (2)                0.00011913 [mEh]       0.00007476 [kcal/mol]       0.00031278 [kJ/mol]

    Dispersion                     -0.00345577 [mEh]      -0.00216853 [kcal/mol]      -0.00907313 [kJ/mol]
      Disp20                       -0.00345578 [mEh]      -0.00216854 [kcal/mol]      -0.00907316 [kJ/mol]
      Exch-Disp20                   0.00000001 [mEh]       0.00000000 [kcal/mol]       0.00000002 [kJ/mol]
      Disp20 (SS)                  -0.00172789 [mEh]      -0.00108427 [kcal/mol]      -0.00453658 [kJ/mol]
      Disp20 (OS)                  -0.00172789 [mEh]      -0.00108427 [kcal/mol]      -0.00453658 [kJ/mol]
      Exch-Disp20 (SS)              0.00000001 [mEh]       0.00000000 [kcal/mol]       0.00000002 [kJ/mol]
      Exch-Disp20 (OS)              0.00000000 [mEh]       0.00000000 [kcal/mol]       0.00000000 [kJ/mol]

  Total HF                          0.01915156 [mEh]       0.01201779 [kcal/mol]       0.05028242 [kJ/mol]
  Total SAPT0                       0.01569579 [mEh]       0.00984926 [kcal/mol]       0.04120929 [kJ/mol]

  Special recipe for scaled SAPT0 (see Manual):
    Electrostatics sSAPT0           0.01922780 [mEh]       0.01206563 [kcal/mol]       0.05048259 [kJ/mol]
    Exchange sSAPT0                 0.00000013 [mEh]       0.00000008 [kcal/mol]       0.00000035 [kJ/mol]
    Induction sSAPT0               -0.00007637 [mEh]      -0.00004793 [kcal/mol]      -0.00020052 [kJ/mol]
    Dispersion sSAPT0              -0.00345577 [mEh]      -0.00216853 [kcal/mol]      -0.00907313 [kJ/mol]
  Total sSAPT0                      0.01569579 [mEh]       0.00984926 [kcal/mol]       0.04120929 [kJ/mol]
  --------------------------------------------------------------------------------------------------------

*** Psi4 exiting successfully. Buy a developer a beer!
