                               Psi4 1.4rc3

  ==> Input File <==

--------------------------------------------------------------------------
# PSI4 file produced by CrystaLattE

# Generated from:               pyrazole.xyz
# Psithon input for N-mer:      2mer-0+245
# Number of atoms per monomer:  [9, 9]
# Number of replicas:           1
# COM priority:                 2.832832625812e-05
# Minimum COM separations:      17.359
# Separation priority:          4.388042805858e-05
# Minimum monomer separations:  15.003
# Cutoff priority:              1.547727410268e-06
# Nuclear repulsion energy:     372.6384600473143

memory 7 GB

molecule Dimer_0_245 {
  N            6.27981210      -4.25303372       0.19313865
  N            6.06870777      -2.28125697       1.80544317
  H            3.66871156      -5.64628941      -1.96684001
  H            0.69034521      -2.37545694      -0.42864236
  H            3.35917442       0.17650601       3.09265017
  H            7.35266782      -1.99461311       2.90680702
  C            3.77952586      -1.21508453       1.76858172
  C            2.38242998      -2.55505538       0.04607681
  C            4.01771468      -4.38410490      -0.88761863
--
  N            2.79813836       2.40090997     -30.40992941
  N            2.91700062       4.43881700     -31.94710312
  H            5.47130109       0.00000000     -29.69189905
  H            8.36593765       2.44253874     -32.44703656
  H            5.42951358       6.15558776     -34.35167287
  H            1.45459240       5.24879406     -32.33286845
  C            5.19983702       4.76899267     -32.97615197
  C            6.68282945       2.83932046     -32.08622950
  C            5.12152412       1.45415264     -30.49453156
units = au
no_com
no_reorient
}

set {
  e_convergence 10
  d_convergence 10
  scf_type df
  mp2_type df
  cc_type df
  freeze_core true
}

energy('sapt0/aug-cc-pvdz')

--------------------------------------------------------------------------

  //              Dimer HF             //
    Molecular point group: c1
  Charge       = 0
  Multiplicity = 1
  Basis Set: AUG-CC-PVDZ
    Blend: AUG-CC-PVDZ
  Basis Set: (AUG-CC-PVDZ AUX)
    Blend: AUG-CC-PVDZ-JKFIT
  @DF-RHF Final Energy:  -449.52475985840596
    Total Energy =                       -449.5247598584060142
  //            Monomer A HF           //
    Molecular point group: c1
  Multiplicity = 1
  Basis Set: AUG-CC-PVDZ
    Blend: AUG-CC-PVDZ
  Basis Set: (AUG-CC-PVDZ AUX)
    Blend: AUG-CC-PVDZ-JKFIT
  @DF-RHF Final Energy:  -224.76233952378118
    Total Energy =                       -224.7623395237811792
  //            Monomer B HF           //
    Molecular point group: c1

    Geometry (in Bohr), charge = 0, multiplicity = 1:

       Center              X                  Y                   Z               Mass
    ------------   -----------------  -----------------  -----------------  -----------------
      Gh(N)           6.279812100000    -4.253033720000     0.193138650000    14.003074004430
      Gh(N)           6.068707770000    -2.281256970000     1.805443170000    14.003074004430
      Gh(H)           3.668711560000    -5.646289410000    -1.966840010000     1.007825032230
      Gh(H)           0.690345210000    -2.375456940000    -0.428642360000     1.007825032230
      Gh(H)           3.359174420000     0.176506010000     3.092650170000     1.007825032230
      Gh(H)           7.352667820000    -1.994613110000     2.906807020000     1.007825032230
      Gh(C)           3.779525860000    -1.215084530000     1.768581720000    12.000000000000
      Gh(C)           2.382429980000    -2.555055380000     0.046076810000    12.000000000000
      Gh(C)           4.017714680000    -4.384104900000    -0.887618630000    12.000000000000
         N            2.798138360000     2.400909970000   -30.409929410000    14.003074004430
         N            2.917000620000     4.438817000000   -31.947103120000    14.003074004430
         H            5.471301090000     0.000000000000   -29.691899050000     1.007825032230
         H            8.365937650000     2.442538740000   -32.447036560000     1.007825032230
         H            5.429513580000     6.155587760000   -34.351672870000     1.007825032230
         H            1.454592400000     5.248794060000   -32.332868450000     1.007825032230
         C            5.199837020000     4.768992670000   -32.976151970000    12.000000000000
         C            6.682829450000     2.839320460000   -32.086229500000    12.000000000000
         C            5.121524120000     1.454152640000   -30.494531560000    12.000000000000

  Charge       = 0
  Multiplicity = 1
  Basis Set: AUG-CC-PVDZ
    Blend: AUG-CC-PVDZ
  Basis Set: (AUG-CC-PVDZ AUX)
    Blend: AUG-CC-PVDZ-JKFIT

    Orbital Energies [Eh]
    ---------------------

    Doubly Occupied:

       1A    -15.636233     2A    -15.592291     3A    -11.279903
       4A    -11.237759     5A    -11.209884     6A     -1.387001
       7A     -1.121894     8A     -1.066928     9A     -0.872759
      10A     -0.837039    11A     -0.757272    12A     -0.645745
      13A     -0.620828    14A     -0.609177    15A     -0.583905
      16A     -0.461413    17A     -0.370715    18A     -0.346055

  @DF-RHF Final Energy:  -224.76243506715878

   => Energetics <=

    Nuclear Repulsion Energy =            166.6286030133970826
    One-Electron Energy =                -633.5084738240533397
    Two-Electron Energy =                 242.1174357434974809
    Total Energy =                       -224.7624350671587763

  Dipole Moment: [D]
     X:     0.7394      Y:     1.4336      Z:    -1.7871     Total:     2.4074

    SAPT Results
  --------------------------------------------------------------------------------------------------------
    Electrostatics                  0.01472126 [mEh]       0.00923773 [kcal/mol]       0.03865067 [kJ/mol]
      Elst10,r                      0.01472126 [mEh]       0.00923773 [kcal/mol]       0.03865067 [kJ/mol]

    Exchange                        0.00000000 [mEh]       0.00000000 [kcal/mol]       0.00000000 [kJ/mol]
      Exch10                        0.00000000 [mEh]       0.00000000 [kcal/mol]       0.00000000 [kJ/mol]
      Exch10(S^2)                   0.00000000 [mEh]       0.00000000 [kcal/mol]       0.00000000 [kJ/mol]

    Induction                       0.00001127 [mEh]       0.00000707 [kcal/mol]       0.00002959 [kJ/mol]
      Ind20,r                      -0.00007905 [mEh]      -0.00004960 [kcal/mol]      -0.00020754 [kJ/mol]
      Exch-Ind20,r                  0.00000000 [mEh]       0.00000000 [kcal/mol]       0.00000000 [kJ/mol]
      delta HF,r (2)                0.00009032 [mEh]       0.00005668 [kcal/mol]       0.00023713 [kJ/mol]

    Dispersion                     -0.00089809 [mEh]      -0.00056356 [kcal/mol]      -0.00235795 [kJ/mol]
      Disp20                       -0.00089809 [mEh]      -0.00056356 [kcal/mol]      -0.00235795 [kJ/mol]
      Exch-Disp20                   0.00000000 [mEh]       0.00000000 [kcal/mol]       0.00000000 [kJ/mol]
      Disp20 (SS)                  -0.00044905 [mEh]      -0.00028178 [kcal/mol]      -0.00117897 [kJ/mol]
      Disp20 (OS)                  -0.00044905 [mEh]      -0.00028178 [kcal/mol]      -0.00117897 [kJ/mol]
      Exch-Disp20 (SS)              0.00000000 [mEh]       0.00000000 [kcal/mol]       0.00000000 [kJ/mol]
      Exch-Disp20 (OS)              0.00000000 [mEh]       0.00000000 [kcal/mol]       0.00000000 [kJ/mol]

  Total HF                          0.01473253 [mEh]       0.00924480 [kcal/mol]       0.03868026 [kJ/mol]
  Total SAPT0                       0.01383444 [mEh]       0.00868124 [kcal/mol]       0.03632232 [kJ/mol]

  Special recipe for scaled SAPT0 (see Manual):
    Electrostatics sSAPT0           0.01472126 [mEh]       0.00923773 [kcal/mol]       0.03865067 [kJ/mol]
    Exchange sSAPT0                 0.00000000 [mEh]       0.00000000 [kcal/mol]       0.00000000 [kJ/mol]
    Induction sSAPT0                0.00001127 [mEh]       0.00000707 [kcal/mol]       0.00002959 [kJ/mol]
    Dispersion sSAPT0              -0.00089809 [mEh]      -0.00056356 [kcal/mol]      -0.00235795 [kJ/mol]
  Total sSAPT0                      0.01383444 [mEh]       0.00868124 [kcal/mol]       0.03632232 [kJ/mol]
  --------------------------------------------------------------------------------------------------------

*** Psi4 exiting successfully. Buy a developer a beer!
