                               Psi4 1.4rc3

  ==> Input File <==

--------------------------------------------------------------------------
# PSI4 file produced by CrystaLattE

# Generated from:               pyrazole.xyz
# Psithon input for N-mer:      2mer-0+638
# Number of atoms per monomer:  [9, 9]
# Number of replicas:           2
# COM priority:                 1.317361342771e-05
# Minimum COM separations:      22.406
# Separation priority:          1.941368918744e-05
# Minimum monomer separations:  19.689
# Cutoff priority:              5.217679872773e-07
# Nuclear repulsion energy:     363.81508752990476

memory 7 GB

molecule Dimer_0_638 {
  N            6.27981210      -4.25303372       0.19313865
  N            6.06870777      -2.28125697       1.80544317
  H            3.66871156      -5.64628941      -1.96684001
  H            0.69034521      -2.37545694      -0.42864236
  H            3.35917442       0.17650601       3.09265017
  H            7.35266782      -1.99461311       2.90680702
  C            3.77952586      -1.21508453       1.76858172
  C            2.38242998      -2.55505538       0.04607681
  C            4.01771468      -4.38410490      -0.88761863
--
  N           -1.45861638     -43.21519003      -0.14706183
  N           -1.66972071     -45.18696678      -1.75936635
  H           -4.06971692     -41.82193434       2.01291682
  H           -7.04808328     -45.09276681       0.47471918
  H           -4.37925406     -47.64472976      -3.04657335
  H           -0.38576066     -45.47361064      -2.86073020
  C           -3.95890263     -46.25313923      -1.72250490
  C           -5.35599851     -44.91316837       0.00000000
  C           -3.72071380     -43.08411886       0.93369544
units = au
no_com
no_reorient
}

set {
  e_convergence 10
  d_convergence 10
  scf_type df
  mp2_type df
  cc_type df
  freeze_core true
}

energy('sapt0/aug-cc-pvdz')

--------------------------------------------------------------------------

  //              Dimer HF             //
    Molecular point group: c1
  Charge       = 0
  Multiplicity = 1
  Basis Set: AUG-CC-PVDZ
    Blend: AUG-CC-PVDZ
  Basis Set: (AUG-CC-PVDZ AUX)
    Blend: AUG-CC-PVDZ-JKFIT
  @DF-RHF Final Energy:  -449.52466645593688
    Total Energy =                       -449.5246664559368810
  //            Monomer A HF           //
    Molecular point group: c1
  Multiplicity = 1
  Basis Set: AUG-CC-PVDZ
    Blend: AUG-CC-PVDZ
  Basis Set: (AUG-CC-PVDZ AUX)
    Blend: AUG-CC-PVDZ-JKFIT
  @DF-RHF Final Energy:  -224.76233952135570
    Total Energy =                       -224.7623395213556989
  //            Monomer B HF           //
    Molecular point group: c1

    Geometry (in Bohr), charge = 0, multiplicity = 1:

       Center              X                  Y                   Z               Mass
    ------------   -----------------  -----------------  -----------------  -----------------
      Gh(N)           6.279812100000    -4.253033720000     0.193138650000    14.003074004430
      Gh(N)           6.068707770000    -2.281256970000     1.805443170000    14.003074004430
      Gh(H)           3.668711560000    -5.646289410000    -1.966840010000     1.007825032230
      Gh(H)           0.690345210000    -2.375456940000    -0.428642360000     1.007825032230
      Gh(H)           3.359174420000     0.176506010000     3.092650170000     1.007825032230
      Gh(H)           7.352667820000    -1.994613110000     2.906807020000     1.007825032230
      Gh(C)           3.779525860000    -1.215084530000     1.768581720000    12.000000000000
      Gh(C)           2.382429980000    -2.555055380000     0.046076810000    12.000000000000
      Gh(C)           4.017714680000    -4.384104900000    -0.887618630000    12.000000000000
         N           -1.458616380000   -43.215190030000    -0.147061830000    14.003074004430
         N           -1.669720710000   -45.186966780000    -1.759366350000    14.003074004430
         H           -4.069716920000   -41.821934340000     2.012916820000     1.007825032230
         H           -7.048083280000   -45.092766810000     0.474719180000     1.007825032230
         H           -4.379254060000   -47.644729760000    -3.046573350000     1.007825032230
         H           -0.385760660000   -45.473610640000    -2.860730200000     1.007825032230
         C           -3.958902630000   -46.253139230000    -1.722504900000    12.000000000000
         C           -5.355998510000   -44.913168370000     0.000000000000    12.000000000000
         C           -3.720713800000   -43.084118860000     0.933695440000    12.000000000000

  Charge       = 0
  Multiplicity = 1
  Basis Set: AUG-CC-PVDZ
    Blend: AUG-CC-PVDZ
  Basis Set: (AUG-CC-PVDZ AUX)
    Blend: AUG-CC-PVDZ-JKFIT

    Orbital Energies [Eh]
    ---------------------

    Doubly Occupied:

       1A    -15.636223     2A    -15.592313     3A    -11.279894
       4A    -11.237784     5A    -11.209891     6A     -1.386922
       7A     -1.121901     8A     -1.066898     9A     -0.872768
      10A     -0.837061    11A     -0.757292    12A     -0.645746
      13A     -0.620834    14A     -0.609140    15A     -0.583920
      16A     -0.461404    17A     -0.370721    18A     -0.346048

  @DF-RHF Final Energy:  -224.76233952366232

   => Energetics <=

    Nuclear Repulsion Energy =            166.6240563795301739
    One-Electron Energy =                -633.4992732517284821
    Two-Electron Energy =                 242.1128773485359602
    Total Energy =                       -224.7623395236623196

  Dipole Moment: [D]
     X:    -1.0235      Y:    -1.6055      Z:    -1.4733     Total:     2.4075

    SAPT Results
  --------------------------------------------------------------------------------------------------------
    Electrostatics                  0.01254929 [mEh]       0.00787480 [kcal/mol]       0.03294815 [kJ/mol]
      Elst10,r                      0.01254929 [mEh]       0.00787480 [kcal/mol]       0.03294815 [kJ/mol]

    Exchange                        0.00000000 [mEh]       0.00000000 [kcal/mol]       0.00000000 [kJ/mol]
      Exch10                        0.00000000 [mEh]       0.00000000 [kcal/mol]       0.00000000 [kJ/mol]
      Exch10(S^2)                   0.00000000 [mEh]       0.00000000 [kcal/mol]       0.00000000 [kJ/mol]

    Induction                       0.00003979 [mEh]       0.00002497 [kcal/mol]       0.00010448 [kJ/mol]
      Ind20,r                      -0.00001620 [mEh]      -0.00001017 [kcal/mol]      -0.00004255 [kJ/mol]
      Exch-Ind20,r                  0.00000000 [mEh]       0.00000000 [kcal/mol]       0.00000000 [kJ/mol]
      delta HF,r (2)                0.00005600 [mEh]       0.00003514 [kcal/mol]       0.00014703 [kJ/mol]

    Dispersion                     -0.00019437 [mEh]      -0.00012197 [kcal/mol]      -0.00051032 [kJ/mol]
      Disp20                       -0.00019437 [mEh]      -0.00012197 [kcal/mol]      -0.00051032 [kJ/mol]
      Exch-Disp20                   0.00000000 [mEh]       0.00000000 [kcal/mol]       0.00000000 [kJ/mol]
      Disp20 (SS)                  -0.00009719 [mEh]      -0.00006099 [kcal/mol]      -0.00025516 [kJ/mol]
      Disp20 (OS)                  -0.00009719 [mEh]      -0.00006099 [kcal/mol]      -0.00025516 [kJ/mol]
      Exch-Disp20 (SS)              0.00000000 [mEh]       0.00000000 [kcal/mol]       0.00000000 [kJ/mol]
      Exch-Disp20 (OS)              0.00000000 [mEh]       0.00000000 [kcal/mol]       0.00000000 [kJ/mol]

  Total HF                          0.01258908 [mEh]       0.00789977 [kcal/mol]       0.03305263 [kJ/mol]
  Total SAPT0                       0.01239471 [mEh]       0.00777780 [kcal/mol]       0.03254230 [kJ/mol]

  Special recipe for scaled SAPT0 (see Manual):
    Electrostatics sSAPT0           0.01254929 [mEh]       0.00787480 [kcal/mol]       0.03294815 [kJ/mol]
    Exchange sSAPT0                 0.00000000 [mEh]       0.00000000 [kcal/mol]       0.00000000 [kJ/mol]
    Induction sSAPT0                0.00003979 [mEh]       0.00002497 [kcal/mol]       0.00010448 [kJ/mol]
    Dispersion sSAPT0              -0.00019437 [mEh]      -0.00012197 [kcal/mol]      -0.00051032 [kJ/mol]
  Total sSAPT0                      0.01239471 [mEh]       0.00777780 [kcal/mol]       0.03254230 [kJ/mol]
  --------------------------------------------------------------------------------------------------------

*** Psi4 exiting successfully. Buy a developer a beer!
