                               Psi4 1.4rc3

  ==> Input File <==

--------------------------------------------------------------------------
# PSI4 file produced by CrystaLattE

# Generated from:               pyrazole.xyz
# Psithon input for N-mer:      2mer-0+16
# Number of atoms per monomer:  [9, 9]
# Number of replicas:           2
# COM priority:                 4.769360730038e-04
# Minimum COM separations:      6.773
# Separation priority:          1.176714384636e-03
# Minimum monomer separations:  5.012
# Cutoff priority:              1.242304571328e-04
# Nuclear repulsion energy:     433.4569586391815

memory 7 GB

molecule Dimer_0_16 {
  N            6.27981210      -4.25303372       0.19313865
  N            6.06870777      -2.28125697       1.80544317
  H            3.66871156      -5.64628941      -1.96684001
  H            0.69034521      -2.37545694      -0.42864236
  H            3.35917442       0.17650601       3.09265017
  H            7.35266782      -1.99461311       2.90680702
  C            3.77952586      -1.21508453       1.76858172
  C            2.38242998      -2.55505538       0.04607681
  C            4.01771468      -4.38410490      -0.88761863
--
  N            6.27981210      -4.25303372     -12.60597640
  N            6.06870777      -2.28125697     -10.99367188
  H            3.66871156      -5.64628941     -14.76595506
  H            0.69034521      -2.37545694     -13.22775741
  H            3.35917442       0.17650601      -9.70646488
  H            7.35266782      -1.99461311      -9.89230803
  C            3.77952586      -1.21508453     -11.03053333
  C            2.38242998      -2.55505538     -12.75303823
  C            4.01771468      -4.38410490     -13.68673368
units = au
no_com
no_reorient
}

set {
  e_convergence 10
  d_convergence 10
  scf_type df
  mp2_type df
  cc_type df
  freeze_core true
}

energy('sapt0/aug-cc-pvdz')

--------------------------------------------------------------------------

  //              Dimer HF             //
    Molecular point group: c1
  Charge       = 0
  Multiplicity = 1
  Basis Set: AUG-CC-PVDZ
    Blend: AUG-CC-PVDZ
  Basis Set: (AUG-CC-PVDZ AUX)
    Blend: AUG-CC-PVDZ-JKFIT
  @DF-RHF Final Energy:  -449.52530871775997
    Total Energy =                       -449.5253087177599127
  //            Monomer A HF           //
    Molecular point group: c1
  Multiplicity = 1
  Basis Set: AUG-CC-PVDZ
    Blend: AUG-CC-PVDZ
  Basis Set: (AUG-CC-PVDZ AUX)
    Blend: AUG-CC-PVDZ-JKFIT
  @DF-RHF Final Energy:  -224.76243805364396
    Total Energy =                       -224.7624380536439617
  //            Monomer B HF           //
    Molecular point group: c1

    Geometry (in Bohr), charge = 0, multiplicity = 1:

       Center              X                  Y                   Z               Mass
    ------------   -----------------  -----------------  -----------------  -----------------
      Gh(N)           6.279812100000    -4.253033720000     0.193138650000    14.003074004430
      Gh(N)           6.068707770000    -2.281256970000     1.805443170000    14.003074004430
      Gh(H)           3.668711560000    -5.646289410000    -1.966840010000     1.007825032230
      Gh(H)           0.690345210000    -2.375456940000    -0.428642360000     1.007825032230
      Gh(H)           3.359174420000     0.176506010000     3.092650170000     1.007825032230
      Gh(H)           7.352667820000    -1.994613110000     2.906807020000     1.007825032230
      Gh(C)           3.779525860000    -1.215084530000     1.768581720000    12.000000000000
      Gh(C)           2.382429980000    -2.555055380000     0.046076810000    12.000000000000
      Gh(C)           4.017714680000    -4.384104900000    -0.887618630000    12.000000000000
         N            6.279812100000    -4.253033720000   -12.605976400000    14.003074004430
         N            6.068707770000    -2.281256970000   -10.993671880000    14.003074004430
         H            3.668711560000    -5.646289410000   -14.765955060000     1.007825032230
         H            0.690345210000    -2.375456940000   -13.227757410000     1.007825032230
         H            3.359174420000     0.176506010000    -9.706464880000     1.007825032230
         H            7.352667820000    -1.994613110000    -9.892308030000     1.007825032230
         C            3.779525860000    -1.215084530000   -11.030533330000    12.000000000000
         C            2.382429980000    -2.555055380000   -12.753038230000    12.000000000000
         C            4.017714680000    -4.384104900000   -13.686733680000    12.000000000000

  Charge       = 0
  Multiplicity = 1
  Basis Set: AUG-CC-PVDZ
    Blend: AUG-CC-PVDZ
  Basis Set: (AUG-CC-PVDZ AUX)
    Blend: AUG-CC-PVDZ-JKFIT

    Orbital Energies [Eh]
    ---------------------

    Doubly Occupied:

       1A    -15.636232     2A    -15.592327     3A    -11.279882
       4A    -11.237782     5A    -11.209876     6A     -1.386921
       7A     -1.121903     8A     -1.066898     9A     -0.872773
      10A     -0.837063    11A     -0.757293    12A     -0.645748
      13A     -0.620837    14A     -0.609138    15A     -0.583919
      16A     -0.461410    17A     -0.370721    18A     -0.346053

  @DF-RHF Final Energy:  -224.76241214548733

   => Energetics <=

    Nuclear Repulsion Energy =            166.6240564751214208
    One-Electron Energy =                -633.4993878512786978
    Two-Electron Energy =                 242.1129192306699736
    Total Energy =                       -224.7624121454873318

  Dipole Moment: [D]
     X:    -1.0232      Y:     1.6044      Z:     1.4734     Total:     2.4067

    SAPT Results
  --------------------------------------------------------------------------------------------------------
    Electrostatics                 -0.44088115 [mEh]      -0.27665710 [kcal/mol]      -1.15753330 [kJ/mol]
      Elst10,r                     -0.44088115 [mEh]      -0.27665710 [kcal/mol]      -1.15753330 [kJ/mol]

    Exchange                        0.00493247 [mEh]       0.00309517 [kcal/mol]       0.01295019 [kJ/mol]
      Exch10                        0.00493247 [mEh]       0.00309517 [kcal/mol]       0.01295019 [kJ/mol]
      Exch10(S^2)                   0.00493243 [mEh]       0.00309515 [kcal/mol]       0.01295009 [kJ/mol]

    Induction                      -0.02256995 [mEh]      -0.01416286 [kcal/mol]      -0.05925739 [kJ/mol]
      Ind20,r                      -0.02353516 [mEh]      -0.01476854 [kcal/mol]      -0.06179156 [kJ/mol]
      Exch-Ind20,r                  0.00172029 [mEh]       0.00107950 [kcal/mol]       0.00451663 [kJ/mol]
      delta HF,r (2)               -0.00075508 [mEh]      -0.00047382 [kcal/mol]      -0.00198246 [kJ/mol]

    Dispersion                     -0.32083209 [mEh]      -0.20132517 [kcal/mol]      -0.84234452 [kJ/mol]
      Disp20                       -0.32202490 [mEh]      -0.20207368 [kcal/mol]      -0.84547627 [kJ/mol]
      Exch-Disp20                   0.00119282 [mEh]       0.00074850 [kcal/mol]       0.00313174 [kJ/mol]
      Disp20 (SS)                  -0.16101245 [mEh]      -0.10103684 [kcal/mol]      -0.42273813 [kJ/mol]
      Disp20 (OS)                  -0.16101245 [mEh]      -0.10103684 [kcal/mol]      -0.42273813 [kJ/mol]
      Exch-Disp20 (SS)              0.00086026 [mEh]       0.00053982 [kcal/mol]       0.00225861 [kJ/mol]
      Exch-Disp20 (OS)              0.00033256 [mEh]       0.00020868 [kcal/mol]       0.00087313 [kJ/mol]

  Total HF                         -0.45851863 [mEh]      -0.28772478 [kcal/mol]      -1.20384049 [kJ/mol]
  Total SAPT0                      -0.77935071 [mEh]      -0.48904996 [kcal/mol]      -2.04618502 [kJ/mol]

  Special recipe for scaled SAPT0 (see Manual):
    Electrostatics sSAPT0          -0.44088115 [mEh]      -0.27665710 [kcal/mol]      -1.15753330 [kJ/mol]
    Exchange sSAPT0                 0.00493247 [mEh]       0.00309517 [kcal/mol]       0.01295019 [kJ/mol]
    Induction sSAPT0               -0.02256995 [mEh]      -0.01416286 [kcal/mol]      -0.05925739 [kJ/mol]
    Dispersion sSAPT0              -0.32083209 [mEh]      -0.20132517 [kcal/mol]      -0.84234452 [kJ/mol]
  Total sSAPT0                     -0.77935071 [mEh]      -0.48904996 [kcal/mol]      -2.04618502 [kJ/mol]
  --------------------------------------------------------------------------------------------------------

*** Psi4 exiting successfully. Buy a developer a beer!
