                               Psi4 1.4rc3

  ==> Input File <==

--------------------------------------------------------------------------
# PSI4 file produced by CrystaLattE

# Generated from:               pyrazole.xyz
# Psithon input for N-mer:      2mer-0+62
# Number of atoms per monomer:  [9, 9]
# Number of replicas:           1
# COM priority:                 5.725296909199e-05
# Minimum COM separations:      13.730
# Separation priority:          1.293918776162e-04
# Minimum monomer separations:  10.462
# Cutoff priority:              6.544493187943e-06
# Nuclear repulsion energy:     383.34026783410553

memory 7 GB

molecule Dimer_0_62 {
  N            6.27981210      -4.25303372       0.19313865
  N            6.06870777      -2.28125697       1.80544317
  H            3.66871156      -5.64628941      -1.96684001
  H            0.69034521      -2.37545694      -0.42864236
  H            3.35917442       0.17650601       3.09265017
  H            7.35266782      -1.99461311       2.90680702
  C            3.77952586      -1.21508453       1.76858172
  C            2.38242998      -2.55505538       0.04607681
  C            4.01771468      -4.38410490      -0.88761863
--
  N           -4.94029013      21.49448368      -7.94133892
  N           -4.82142787      19.45657665      -6.40416521
  H           -2.26712739      23.89539365      -8.65936928
  H            0.62750917      21.45285491      -5.90423177
  H           -2.30891491      17.73980589      -3.99959546
  H           -6.28383608      18.64659959      -6.01839988
  C           -2.53859146      19.12640098      -5.37511636
  C           -1.05559903      21.05607319      -6.26503882
  C           -2.61690436      22.44124101      -7.85673677
units = au
no_com
no_reorient
}

set {
  e_convergence 10
  d_convergence 10
  scf_type df
  mp2_type df
  cc_type df
  freeze_core true
}

energy('sapt0/aug-cc-pvdz')

--------------------------------------------------------------------------

  //              Dimer HF             //
    Molecular point group: c1
  Charge       = 0
  Multiplicity = 1
  Basis Set: AUG-CC-PVDZ
    Blend: AUG-CC-PVDZ
  Basis Set: (AUG-CC-PVDZ AUX)
    Blend: AUG-CC-PVDZ-JKFIT
  @DF-RHF Final Energy:  -449.52471036404057
    Total Energy =                       -449.5247103640406294
  //            Monomer A HF           //
    Molecular point group: c1
  Multiplicity = 1
  Basis Set: AUG-CC-PVDZ
    Blend: AUG-CC-PVDZ
  Basis Set: (AUG-CC-PVDZ AUX)
    Blend: AUG-CC-PVDZ-JKFIT
  @DF-RHF Final Energy:  -224.76233989681828
    Total Energy =                       -224.7623398968182755
  //            Monomer B HF           //
    Molecular point group: c1

    Geometry (in Bohr), charge = 0, multiplicity = 1:

       Center              X                  Y                   Z               Mass
    ------------   -----------------  -----------------  -----------------  -----------------
      Gh(N)           6.279812100000    -4.253033720000     0.193138650000    14.003074004430
      Gh(N)           6.068707770000    -2.281256970000     1.805443170000    14.003074004430
      Gh(H)           3.668711560000    -5.646289410000    -1.966840010000     1.007825032230
      Gh(H)           0.690345210000    -2.375456940000    -0.428642360000     1.007825032230
      Gh(H)           3.359174420000     0.176506010000     3.092650170000     1.007825032230
      Gh(H)           7.352667820000    -1.994613110000     2.906807020000     1.007825032230
      Gh(C)           3.779525860000    -1.215084530000     1.768581720000    12.000000000000
      Gh(C)           2.382429980000    -2.555055380000     0.046076810000    12.000000000000
      Gh(C)           4.017714680000    -4.384104900000    -0.887618630000    12.000000000000
         N           -4.940290130000    21.494483680000    -7.941338920000    14.003074004430
         N           -4.821427870000    19.456576650000    -6.404165210000    14.003074004430
         H           -2.267127390000    23.895393650000    -8.659369280000     1.007825032230
         H            0.627509170000    21.452854910000    -5.904231770000     1.007825032230
         H           -2.308914910000    17.739805890000    -3.999595460000     1.007825032230
         H           -6.283836080000    18.646599590000    -6.018399880000     1.007825032230
         C           -2.538591460000    19.126400980000    -5.375116360000    12.000000000000
         C           -1.055599030000    21.056073190000    -6.265038820000    12.000000000000
         C           -2.616904360000    22.441241010000    -7.856736770000    12.000000000000

  Charge       = 0
  Multiplicity = 1
  Basis Set: AUG-CC-PVDZ
    Blend: AUG-CC-PVDZ
  Basis Set: (AUG-CC-PVDZ AUX)
    Blend: AUG-CC-PVDZ-JKFIT

    Orbital Energies [Eh]
    ---------------------

    Doubly Occupied:

       1A    -15.636233     2A    -15.592291     3A    -11.279903
       4A    -11.237759     5A    -11.209884     6A     -1.387001
       7A     -1.121894     8A     -1.066928     9A     -0.872759
      10A     -0.837039    11A     -0.757272    12A     -0.645745
      13A     -0.620828    14A     -0.609177    15A     -0.583905
      16A     -0.461413    17A     -0.370715    18A     -0.346055

  @DF-RHF Final Energy:  -224.76243536314959

   => Energetics <=

    Nuclear Repulsion Energy =            166.6286028148161051
    One-Electron Energy =                -633.5084744403447985
    Two-Electron Energy =                 242.1174362623791296
    Total Energy =                       -224.7624353631495921

  Dipole Moment: [D]
     X:     0.7394      Y:    -1.4336      Z:     1.7871     Total:     2.4074

    SAPT Results
  --------------------------------------------------------------------------------------------------------
    Electrostatics                  0.06513753 [mEh]       0.04087442 [kcal/mol]       0.17101856 [kJ/mol]
      Elst10,r                      0.06513753 [mEh]       0.04087442 [kcal/mol]       0.17101856 [kJ/mol]

    Exchange                        0.00000077 [mEh]       0.00000049 [kcal/mol]       0.00000203 [kJ/mol]
      Exch10                        0.00000077 [mEh]       0.00000049 [kcal/mol]       0.00000203 [kJ/mol]
      Exch10(S^2)                   0.00000077 [mEh]       0.00000049 [kcal/mol]       0.00000203 [kJ/mol]

    Induction                      -0.00024237 [mEh]      -0.00015209 [kcal/mol]      -0.00063635 [kJ/mol]
      Ind20,r                      -0.00037447 [mEh]      -0.00023498 [kcal/mol]      -0.00098316 [kJ/mol]
      Exch-Ind20,r                  0.00000111 [mEh]       0.00000069 [kcal/mol]       0.00000291 [kJ/mol]
      delta HF,r (2)                0.00013098 [mEh]       0.00008219 [kcal/mol]       0.00034390 [kJ/mol]

    Dispersion                     -0.00444091 [mEh]      -0.00278671 [kcal/mol]      -0.01165960 [kJ/mol]
      Disp20                       -0.00444095 [mEh]      -0.00278674 [kcal/mol]      -0.01165971 [kJ/mol]
      Exch-Disp20                   0.00000005 [mEh]       0.00000003 [kcal/mol]       0.00000012 [kJ/mol]
      Disp20 (SS)                  -0.00222048 [mEh]      -0.00139337 [kcal/mol]      -0.00582986 [kJ/mol]
      Disp20 (OS)                  -0.00222048 [mEh]      -0.00139337 [kcal/mol]      -0.00582986 [kJ/mol]
      Exch-Disp20 (SS)              0.00000004 [mEh]       0.00000002 [kcal/mol]       0.00000009 [kJ/mol]
      Exch-Disp20 (OS)              0.00000001 [mEh]       0.00000001 [kcal/mol]       0.00000003 [kJ/mol]

  Total HF                          0.06489593 [mEh]       0.04072281 [kcal/mol]       0.17038423 [kJ/mol]
  Total SAPT0                       0.06045502 [mEh]       0.03793610 [kcal/mol]       0.15872464 [kJ/mol]

  Special recipe for scaled SAPT0 (see Manual):
    Electrostatics sSAPT0           0.06513753 [mEh]       0.04087442 [kcal/mol]       0.17101856 [kJ/mol]
    Exchange sSAPT0                 0.00000077 [mEh]       0.00000049 [kcal/mol]       0.00000203 [kJ/mol]
    Induction sSAPT0               -0.00024237 [mEh]      -0.00015209 [kcal/mol]      -0.00063635 [kJ/mol]
    Dispersion sSAPT0              -0.00444091 [mEh]      -0.00278671 [kcal/mol]      -0.01165960 [kJ/mol]
  Total sSAPT0                      0.06045502 [mEh]       0.03793610 [kcal/mol]       0.15872464 [kJ/mol]
  --------------------------------------------------------------------------------------------------------

*** Psi4 exiting successfully. Buy a developer a beer!
