                               Psi4 1.4rc3

  ==> Input File <==

--------------------------------------------------------------------------
# PSI4 file produced by CrystaLattE

# Generated from:               pyrazole.xyz
# Psithon input for N-mer:      2mer-0+397
# Number of atoms per monomer:  [9, 9]
# Number of replicas:           2
# COM priority:                 1.759300554737e-05
# Minimum COM separations:      20.346
# Separation priority:          2.855717722399e-05
# Minimum monomer separations:  17.313
# Cutoff priority:              8.728783108357e-07
# Nuclear repulsion energy:     366.98528468506686

memory 7 GB

molecule Dimer_0_397 {
  N            6.27981210      -4.25303372       0.19313865
  N            6.06870777      -2.28125697       1.80544317
  H            3.66871156      -5.64628941      -1.96684001
  H            0.69034521      -2.37545694      -0.42864236
  H            3.35917442       0.17650601       3.09265017
  H            7.35266782      -1.99461311       2.90680702
  C            3.77952586      -1.21508453       1.76858172
  C            2.38242998      -2.55505538       0.04607681
  C            4.01771468      -4.38410490      -0.88761863
--
  N           -1.45861638       4.36055490      38.25028331
  N           -1.66972071       2.38877815      36.63797879
  H           -4.06971692       5.75381059      40.41026197
  H           -7.04808328       2.48297813      38.87206432
  H           -4.37925406      -0.06898483      35.35077179
  H           -0.38576066       2.10213429      35.53661494
  C           -3.95890263       1.32260571      36.67484024
  C           -5.35599851       2.66257657      38.39734514
  C           -3.72071380       4.49162608      39.33104059
units = au
no_com
no_reorient
}

set {
  e_convergence 10
  d_convergence 10
  scf_type df
  mp2_type df
  cc_type df
  freeze_core true
}

energy('sapt0/aug-cc-pvdz')

--------------------------------------------------------------------------

  //              Dimer HF             //
    Molecular point group: c1
  Charge       = 0
  Multiplicity = 1
  Basis Set: AUG-CC-PVDZ
    Blend: AUG-CC-PVDZ
  Basis Set: (AUG-CC-PVDZ AUX)
    Blend: AUG-CC-PVDZ-JKFIT
  @DF-RHF Final Energy:  -449.52466805396500
    Total Energy =                       -449.5246680539650015
  //            Monomer A HF           //
    Molecular point group: c1
  Multiplicity = 1
  Basis Set: AUG-CC-PVDZ
    Blend: AUG-CC-PVDZ
  Basis Set: (AUG-CC-PVDZ AUX)
    Blend: AUG-CC-PVDZ-JKFIT
  @DF-RHF Final Energy:  -224.76233952073002
    Total Energy =                       -224.7623395207300234
  //            Monomer B HF           //
    Molecular point group: c1

    Geometry (in Bohr), charge = 0, multiplicity = 1:

       Center              X                  Y                   Z               Mass
    ------------   -----------------  -----------------  -----------------  -----------------
      Gh(N)           6.279812100000    -4.253033720000     0.193138650000    14.003074004430
      Gh(N)           6.068707770000    -2.281256970000     1.805443170000    14.003074004430
      Gh(H)           3.668711560000    -5.646289410000    -1.966840010000     1.007825032230
      Gh(H)           0.690345210000    -2.375456940000    -0.428642360000     1.007825032230
      Gh(H)           3.359174420000     0.176506010000     3.092650170000     1.007825032230
      Gh(H)           7.352667820000    -1.994613110000     2.906807020000     1.007825032230
      Gh(C)           3.779525860000    -1.215084530000     1.768581720000    12.000000000000
      Gh(C)           2.382429980000    -2.555055380000     0.046076810000    12.000000000000
      Gh(C)           4.017714680000    -4.384104900000    -0.887618630000    12.000000000000
         N           -1.458616380000     4.360554900000    38.250283310000    14.003074004430
         N           -1.669720710000     2.388778150000    36.637978790000    14.003074004430
         H           -4.069716920000     5.753810590000    40.410261970000     1.007825032230
         H           -7.048083280000     2.482978130000    38.872064320000     1.007825032230
         H           -4.379254060000    -0.068984830000    35.350771790000     1.007825032230
         H           -0.385760660000     2.102134290000    35.536614940000     1.007825032230
         C           -3.958902630000     1.322605710000    36.674840240000    12.000000000000
         C           -5.355998510000     2.662576570000    38.397345140000    12.000000000000
         C           -3.720713800000     4.491626080000    39.331040590000    12.000000000000

  Charge       = 0
  Multiplicity = 1
  Basis Set: AUG-CC-PVDZ
    Blend: AUG-CC-PVDZ
  Basis Set: (AUG-CC-PVDZ AUX)
    Blend: AUG-CC-PVDZ-JKFIT

    Orbital Energies [Eh]
    ---------------------

    Doubly Occupied:

       1A    -15.636223     2A    -15.592313     3A    -11.279894
       4A    -11.237784     5A    -11.209891     6A     -1.386922
       7A     -1.121901     8A     -1.066898     9A     -0.872768
      10A     -0.837061    11A     -0.757292    12A     -0.645746
      13A     -0.620834    14A     -0.609140    15A     -0.583920
      16A     -0.461404    17A     -0.370721    18A     -0.346048

  @DF-RHF Final Energy:  -224.76233952223120

   => Energetics <=

    Nuclear Repulsion Energy =            166.6240563307950424
    One-Electron Energy =                -633.4992731519594145
    Two-Electron Energy =                 242.1128772989331708
    Total Energy =                       -224.7623395222312013

  Dipole Moment: [D]
     X:    -1.0235      Y:    -1.6055      Z:    -1.4733     Total:     2.4075

    SAPT Results
  --------------------------------------------------------------------------------------------------------
    Electrostatics                  0.01097150 [mEh]       0.00688472 [kcal/mol]       0.02880567 [kJ/mol]
      Elst10,r                      0.01097150 [mEh]       0.00688472 [kcal/mol]       0.02880567 [kJ/mol]

    Exchange                        0.00000000 [mEh]       0.00000000 [kcal/mol]       0.00000000 [kJ/mol]
      Exch10                        0.00000000 [mEh]       0.00000000 [kcal/mol]       0.00000000 [kJ/mol]
      Exch10(S^2)                   0.00000000 [mEh]       0.00000000 [kcal/mol]       0.00000000 [kJ/mol]

    Induction                       0.00001750 [mEh]       0.00001098 [kcal/mol]       0.00004594 [kJ/mol]
      Ind20,r                      -0.00003237 [mEh]      -0.00002031 [kcal/mol]      -0.00008498 [kJ/mol]
      Exch-Ind20,r                  0.00000000 [mEh]       0.00000000 [kcal/mol]       0.00000000 [kJ/mol]
      delta HF,r (2)                0.00004987 [mEh]       0.00003129 [kcal/mol]       0.00013092 [kJ/mol]

    Dispersion                     -0.00035555 [mEh]      -0.00022311 [kcal/mol]      -0.00093350 [kJ/mol]
      Disp20                       -0.00035555 [mEh]      -0.00022311 [kcal/mol]      -0.00093350 [kJ/mol]
      Exch-Disp20                   0.00000000 [mEh]       0.00000000 [kcal/mol]       0.00000000 [kJ/mol]
      Disp20 (SS)                  -0.00017778 [mEh]      -0.00011156 [kcal/mol]      -0.00046675 [kJ/mol]
      Disp20 (OS)                  -0.00017778 [mEh]      -0.00011156 [kcal/mol]      -0.00046675 [kJ/mol]
      Exch-Disp20 (SS)              0.00000000 [mEh]       0.00000000 [kcal/mol]       0.00000000 [kJ/mol]
      Exch-Disp20 (OS)              0.00000000 [mEh]       0.00000000 [kcal/mol]       0.00000000 [kJ/mol]

  Total HF                          0.01098900 [mEh]       0.00689570 [kcal/mol]       0.02885161 [kJ/mol]
  Total SAPT0                       0.01063344 [mEh]       0.00667259 [kcal/mol]       0.02791810 [kJ/mol]

  Special recipe for scaled SAPT0 (see Manual):
    Electrostatics sSAPT0           0.01097150 [mEh]       0.00688472 [kcal/mol]       0.02880567 [kJ/mol]
    Exchange sSAPT0                 0.00000000 [mEh]       0.00000000 [kcal/mol]       0.00000000 [kJ/mol]
    Induction sSAPT0                0.00001750 [mEh]       0.00001098 [kcal/mol]       0.00004594 [kJ/mol]
    Dispersion sSAPT0              -0.00035555 [mEh]      -0.00022311 [kcal/mol]      -0.00093350 [kJ/mol]
  Total sSAPT0                      0.01063344 [mEh]       0.00667259 [kcal/mol]       0.02791810 [kJ/mol]
  --------------------------------------------------------------------------------------------------------

*** Psi4 exiting successfully. Buy a developer a beer!
