                               Psi4 1.4rc3

  ==> Input File <==

--------------------------------------------------------------------------
# PSI4 file produced by CrystaLattE

# Generated from:               pyrazole.xyz
# Psithon input for N-mer:      2mer-0+54
# Number of atoms per monomer:  [9, 9]
# Number of replicas:           1
# COM priority:                 2.841116653667e-04
# Minimum COM separations:      8.050
# Separation priority:          6.703362207301e-04
# Minimum monomer separations:  6.046
# Cutoff priority:              5.866650938006e-05
# Nuclear repulsion energy:     417.73209298043304

memory 7 GB

molecule Dimer_0_54 {
  N            6.27981210      -4.25303372       0.19313865
  N            6.06870777      -2.28125697       1.80544317
  H            3.66871156      -5.64628941      -1.96684001
  H            0.69034521      -2.37545694      -0.42864236
  H            3.35917442       0.17650601       3.09265017
  H            7.35266782      -1.99461311       2.90680702
  C            3.77952586      -1.21508453       1.76858172
  C            2.38242998      -2.55505538       0.04607681
  C            4.01771468      -4.38410490      -0.88761863
--
  N           10.53656684      -9.49302627      11.25733365
  N           10.65542910      -7.45511923      12.79450737
  H           13.20972957     -11.89393623      10.53930329
  H           16.10436613      -9.45139749      13.29444080
  H           13.16794206      -5.73834848      15.19907711
  H            9.19302089      -6.64514217      13.18027269
  C           12.93826550      -7.12494356      13.82355622
  C           14.42125794      -9.05461578      12.93363375
  C           12.85995261     -10.43978359      11.34193580
units = au
no_com
no_reorient
}

set {
  e_convergence 10
  d_convergence 10
  scf_type df
  mp2_type df
  cc_type df
  freeze_core true
}

energy('sapt0/aug-cc-pvdz')

--------------------------------------------------------------------------

  //              Dimer HF             //
    Molecular point group: c1
  Charge       = 0
  Multiplicity = 1
  Basis Set: AUG-CC-PVDZ
    Blend: AUG-CC-PVDZ
  Basis Set: (AUG-CC-PVDZ AUX)
    Blend: AUG-CC-PVDZ-JKFIT
  @DF-RHF Final Energy:  -449.52438326049804
    Total Energy =                       -449.5243832604980980
  //            Monomer A HF           //
    Molecular point group: c1
  Multiplicity = 1
  Basis Set: AUG-CC-PVDZ
    Blend: AUG-CC-PVDZ
  Basis Set: (AUG-CC-PVDZ AUX)
    Blend: AUG-CC-PVDZ-JKFIT
  @DF-RHF Final Energy:  -224.76235518946800
    Total Energy =                       -224.7623551894679963
  //            Monomer B HF           //
    Molecular point group: c1

    Geometry (in Bohr), charge = 0, multiplicity = 1:

       Center              X                  Y                   Z               Mass
    ------------   -----------------  -----------------  -----------------  -----------------
      Gh(N)           6.279812100000    -4.253033720000     0.193138650000    14.003074004430
      Gh(N)           6.068707770000    -2.281256970000     1.805443170000    14.003074004430
      Gh(H)           3.668711560000    -5.646289410000    -1.966840010000     1.007825032230
      Gh(H)           0.690345210000    -2.375456940000    -0.428642360000     1.007825032230
      Gh(H)           3.359174420000     0.176506010000     3.092650170000     1.007825032230
      Gh(H)           7.352667820000    -1.994613110000     2.906807020000     1.007825032230
      Gh(C)           3.779525860000    -1.215084530000     1.768581720000    12.000000000000
      Gh(C)           2.382429980000    -2.555055380000     0.046076810000    12.000000000000
      Gh(C)           4.017714680000    -4.384104900000    -0.887618630000    12.000000000000
         N           10.536566840000    -9.493026270000    11.257333650000    14.003074004430
         N           10.655429100000    -7.455119230000    12.794507370000    14.003074004430
         H           13.209729570000   -11.893936230000    10.539303290000     1.007825032230
         H           16.104366130000    -9.451397490000    13.294440800000     1.007825032230
         H           13.167942060000    -5.738348480000    15.199077110000     1.007825032230
         H            9.193020890000    -6.645142170000    13.180272690000     1.007825032230
         C           12.938265500000    -7.124943560000    13.823556220000    12.000000000000
         C           14.421257940000    -9.054615780000    12.933633750000    12.000000000000
         C           12.859952610000   -10.439783590000    11.341935800000    12.000000000000

  Charge       = 0
  Multiplicity = 1
  Basis Set: AUG-CC-PVDZ
    Blend: AUG-CC-PVDZ
  Basis Set: (AUG-CC-PVDZ AUX)
    Blend: AUG-CC-PVDZ-JKFIT

    Orbital Energies [Eh]
    ---------------------

    Doubly Occupied:

       1A    -15.636239     2A    -15.592299     3A    -11.279901
       4A    -11.237753     5A    -11.209882     6A     -1.387002
       7A     -1.121895     8A     -1.066928     9A     -0.872761
      10A     -0.837040    11A     -0.757274    12A     -0.645747
      13A     -0.620829    14A     -0.609177    15A     -0.583907
      16A     -0.461415    17A     -0.370715    18A     -0.346056

  @DF-RHF Final Energy:  -224.76245587267323

   => Energetics <=

    Nuclear Repulsion Energy =            166.6286027610160545
    One-Electron Energy =                -633.5084733903722736
    Two-Electron Energy =                 242.1174147566829902
    Total Energy =                       -224.7624558726732289

  Dipole Moment: [D]
     X:     0.7388      Y:     1.4339      Z:     1.7867     Total:     2.4072

    SAPT Results
  --------------------------------------------------------------------------------------------------------
    Electrostatics                  0.43990432 [mEh]       0.27604413 [kcal/mol]       1.15496864 [kJ/mol]
      Elst10,r                      0.43990432 [mEh]       0.27604413 [kcal/mol]       1.15496864 [kJ/mol]

    Exchange                        0.00002612 [mEh]       0.00001639 [kcal/mol]       0.00006857 [kJ/mol]
      Exch10                        0.00002612 [mEh]       0.00001639 [kcal/mol]       0.00006857 [kJ/mol]
      Exch10(S^2)                   0.00002612 [mEh]       0.00001639 [kcal/mol]       0.00006857 [kJ/mol]

    Induction                      -0.01212880 [mEh]      -0.00761094 [kcal/mol]      -0.03184416 [kJ/mol]
      Ind20,r                      -0.01212976 [mEh]      -0.00761154 [kcal/mol]      -0.03184669 [kJ/mol]
      Exch-Ind20,r                  0.00003412 [mEh]       0.00002141 [kcal/mol]       0.00008957 [kJ/mol]
      delta HF,r (2)               -0.00003315 [mEh]      -0.00002080 [kcal/mol]      -0.00008704 [kJ/mol]

    Dispersion                     -0.09659975 [mEh]      -0.06061726 [kcal/mol]      -0.25362261 [kJ/mol]
      Disp20                       -0.09661940 [mEh]      -0.06062959 [kcal/mol]      -0.25367419 [kJ/mol]
      Exch-Disp20                   0.00001964 [mEh]       0.00001233 [kcal/mol]       0.00005158 [kJ/mol]
      Disp20 (SS)                  -0.04830970 [mEh]      -0.03031479 [kcal/mol]      -0.12683709 [kJ/mol]
      Disp20 (OS)                  -0.04830970 [mEh]      -0.03031479 [kcal/mol]      -0.12683709 [kJ/mol]
      Exch-Disp20 (SS)              0.00001536 [mEh]       0.00000964 [kcal/mol]       0.00004034 [kJ/mol]
      Exch-Disp20 (OS)              0.00000428 [mEh]       0.00000269 [kcal/mol]       0.00001124 [kJ/mol]

  Total HF                          0.42780164 [mEh]       0.26844958 [kcal/mol]       1.12319306 [kJ/mol]
  Total SAPT0                       0.33120189 [mEh]       0.20783232 [kcal/mol]       0.86957045 [kJ/mol]

  Special recipe for scaled SAPT0 (see Manual):
    Electrostatics sSAPT0           0.43990432 [mEh]       0.27604413 [kcal/mol]       1.15496864 [kJ/mol]
    Exchange sSAPT0                 0.00002612 [mEh]       0.00001639 [kcal/mol]       0.00006857 [kJ/mol]
    Induction sSAPT0               -0.01212880 [mEh]      -0.00761094 [kcal/mol]      -0.03184416 [kJ/mol]
    Dispersion sSAPT0              -0.09659975 [mEh]      -0.06061726 [kcal/mol]      -0.25362261 [kJ/mol]
  Total sSAPT0                      0.33120189 [mEh]       0.20783232 [kcal/mol]       0.86957045 [kJ/mol]
  --------------------------------------------------------------------------------------------------------

*** Psi4 exiting successfully. Buy a developer a beer!
