                               Psi4 1.4rc3

  ==> Input File <==

--------------------------------------------------------------------------
# PSI4 file produced by CrystaLattE

# Generated from:               pyrazole.xyz
# Psithon input for N-mer:      2mer-0+117
# Number of atoms per monomer:  [9, 9]
# Number of replicas:           2
# COM priority:                 5.514500029873e-05
# Minimum COM separations:      13.903
# Separation priority:          1.233071333784e-04
# Minimum monomer separations:  10.632
# Cutoff priority:              6.137397733776e-06
# Nuclear repulsion energy:     382.6927836741369

memory 7 GB

molecule Dimer_0_117 {
  N            6.27981210      -4.25303372       0.19313865
  N            6.06870777      -2.28125697       1.80544317
  H            3.66871156      -5.64628941      -1.96684001
  H            0.69034521      -2.37545694      -0.42864236
  H            3.35917442       0.17650601       3.09265017
  H            7.35266782      -1.99461311       2.90680702
  C            3.77952586      -1.21508453       1.76858172
  C            2.38242998      -2.55505538       0.04607681
  C            4.01771468      -4.38410490      -0.88761863
--
  N           -1.45861638       4.36055490      25.45116826
  N           -1.66972071       2.38877815      23.83886374
  H           -4.06971692       5.75381059      27.61114692
  H           -7.04808328       2.48297813      26.07294927
  H           -4.37925406      -0.06898483      22.55165674
  H           -0.38576066       2.10213429      22.73749989
  C           -3.95890263       1.32260571      23.87572519
  C           -5.35599851       2.66257657      25.59823010
  C           -3.72071380       4.49162608      26.53192554
units = au
no_com
no_reorient
}

set {
  e_convergence 10
  d_convergence 10
  scf_type df
  mp2_type df
  cc_type df
  freeze_core true
}

energy('sapt0/aug-cc-pvdz')

--------------------------------------------------------------------------

  //              Dimer HF             //
    Molecular point group: c1
  Charge       = 0
  Multiplicity = 1
  Basis Set: AUG-CC-PVDZ
    Blend: AUG-CC-PVDZ
  Basis Set: (AUG-CC-PVDZ AUX)
    Blend: AUG-CC-PVDZ-JKFIT
  @DF-RHF Final Energy:  -449.52463339818644
    Total Energy =                       -449.5246333981864382
  //            Monomer A HF           //
    Molecular point group: c1
  Multiplicity = 1
  Basis Set: AUG-CC-PVDZ
    Blend: AUG-CC-PVDZ
  Basis Set: (AUG-CC-PVDZ AUX)
    Blend: AUG-CC-PVDZ-JKFIT
  @DF-RHF Final Energy:  -224.76233967332860
    Total Energy =                       -224.7623396733285972
  //            Monomer B HF           //
    Molecular point group: c1

    Geometry (in Bohr), charge = 0, multiplicity = 1:

       Center              X                  Y                   Z               Mass
    ------------   -----------------  -----------------  -----------------  -----------------
      Gh(N)           6.279812100000    -4.253033720000     0.193138650000    14.003074004430
      Gh(N)           6.068707770000    -2.281256970000     1.805443170000    14.003074004430
      Gh(H)           3.668711560000    -5.646289410000    -1.966840010000     1.007825032230
      Gh(H)           0.690345210000    -2.375456940000    -0.428642360000     1.007825032230
      Gh(H)           3.359174420000     0.176506010000     3.092650170000     1.007825032230
      Gh(H)           7.352667820000    -1.994613110000     2.906807020000     1.007825032230
      Gh(C)           3.779525860000    -1.215084530000     1.768581720000    12.000000000000
      Gh(C)           2.382429980000    -2.555055380000     0.046076810000    12.000000000000
      Gh(C)           4.017714680000    -4.384104900000    -0.887618630000    12.000000000000
         N           -1.458616380000     4.360554900000    25.451168260000    14.003074004430
         N           -1.669720710000     2.388778150000    23.838863740000    14.003074004430
         H           -4.069716920000     5.753810590000    27.611146920000     1.007825032230
         H           -7.048083280000     2.482978130000    26.072949270000     1.007825032230
         H           -4.379254060000    -0.068984830000    22.551656740000     1.007825032230
         H           -0.385760660000     2.102134290000    22.737499890000     1.007825032230
         C           -3.958902630000     1.322605710000    23.875725190000    12.000000000000
         C           -5.355998510000     2.662576570000    25.598230100000    12.000000000000
         C           -3.720713800000     4.491626080000    26.531925540000    12.000000000000

  Charge       = 0
  Multiplicity = 1
  Basis Set: AUG-CC-PVDZ
    Blend: AUG-CC-PVDZ
  Basis Set: (AUG-CC-PVDZ AUX)
    Blend: AUG-CC-PVDZ-JKFIT

    Orbital Energies [Eh]
    ---------------------

    Doubly Occupied:

       1A    -15.636223     2A    -15.592313     3A    -11.279894
       4A    -11.237784     5A    -11.209891     6A     -1.386922
       7A     -1.121901     8A     -1.066898     9A     -0.872768
      10A     -0.837061    11A     -0.757292    12A     -0.645746
      13A     -0.620834    14A     -0.609140    15A     -0.583920
      16A     -0.461404    17A     -0.370721    18A     -0.346048

  @DF-RHF Final Energy:  -224.76233960582005

   => Energetics <=

    Nuclear Repulsion Energy =            166.6240563060008526
    One-Electron Energy =                -633.4992736629386627
    Two-Electron Energy =                 242.1128777511177645
    Total Energy =                       -224.7623396058200456

  Dipole Moment: [D]
     X:    -1.0235      Y:    -1.6055      Z:    -1.4733     Total:     2.4075

    SAPT Results
  --------------------------------------------------------------------------------------------------------
    Electrostatics                  0.04622566 [mEh]       0.02900704 [kcal/mol]       0.12136545 [kJ/mol]
      Elst10,r                      0.04622566 [mEh]       0.02900704 [kcal/mol]       0.12136545 [kJ/mol]

    Exchange                        0.00000016 [mEh]       0.00000010 [kcal/mol]       0.00000041 [kJ/mol]
      Exch10                        0.00000016 [mEh]       0.00000010 [kcal/mol]       0.00000041 [kJ/mol]
      Exch10(S^2)                   0.00000016 [mEh]       0.00000010 [kcal/mol]       0.00000041 [kJ/mol]

    Induction                      -0.00034485 [mEh]      -0.00021640 [kcal/mol]      -0.00090541 [kJ/mol]
      Ind20,r                      -0.00041917 [mEh]      -0.00026303 [kcal/mol]      -0.00110052 [kJ/mol]
      Exch-Ind20,r                  0.00000026 [mEh]       0.00000017 [kcal/mol]       0.00000069 [kJ/mol]
      delta HF,r (2)                0.00007405 [mEh]       0.00004647 [kcal/mol]       0.00019441 [kJ/mol]

    Dispersion                     -0.00381008 [mEh]      -0.00239086 [kcal/mol]      -0.01000337 [kJ/mol]
      Disp20                       -0.00381010 [mEh]      -0.00239087 [kcal/mol]      -0.01000341 [kJ/mol]
      Exch-Disp20                   0.00000002 [mEh]       0.00000001 [kcal/mol]       0.00000004 [kJ/mol]
      Disp20 (SS)                  -0.00190505 [mEh]      -0.00119544 [kcal/mol]      -0.00500170 [kJ/mol]
      Disp20 (OS)                  -0.00190505 [mEh]      -0.00119544 [kcal/mol]      -0.00500170 [kJ/mol]
      Exch-Disp20 (SS)              0.00000001 [mEh]       0.00000001 [kcal/mol]       0.00000003 [kJ/mol]
      Exch-Disp20 (OS)              0.00000000 [mEh]       0.00000000 [kcal/mol]       0.00000001 [kJ/mol]

  Total HF                          0.04588096 [mEh]       0.02879074 [kcal/mol]       0.12046045 [kJ/mol]
  Total SAPT0                       0.04207088 [mEh]       0.02639988 [kcal/mol]       0.11045708 [kJ/mol]

  Special recipe for scaled SAPT0 (see Manual):
    Electrostatics sSAPT0           0.04622566 [mEh]       0.02900704 [kcal/mol]       0.12136545 [kJ/mol]
    Exchange sSAPT0                 0.00000016 [mEh]       0.00000010 [kcal/mol]       0.00000041 [kJ/mol]
    Induction sSAPT0               -0.00034485 [mEh]      -0.00021640 [kcal/mol]      -0.00090541 [kJ/mol]
    Dispersion sSAPT0              -0.00381008 [mEh]      -0.00239086 [kcal/mol]      -0.01000337 [kJ/mol]
  Total sSAPT0                      0.04207088 [mEh]       0.02639988 [kcal/mol]       0.11045708 [kJ/mol]
  --------------------------------------------------------------------------------------------------------

*** Psi4 exiting successfully. Buy a developer a beer!
