                               Psi4 1.4rc3

  ==> Input File <==

--------------------------------------------------------------------------
# PSI4 file produced by CrystaLattE

# Generated from:               pyrazole.xyz
# Psithon input for N-mer:      2mer-0+118
# Number of atoms per monomer:  [9, 9]
# Number of replicas:           2
# COM priority:                 3.542686066818e-05
# Minimum COM separations:      16.112
# Separation priority:          6.849211585416e-05
# Minimum monomer separations:  12.934
# Cutoff priority:              2.802339683501e-06
# Nuclear repulsion energy:     375.9021598091267

memory 7 GB

molecule Dimer_0_118 {
  N            6.27981210      -4.25303372       0.19313865
  N            6.06870777      -2.28125697       1.80544317
  H            3.66871156      -5.64628941      -1.96684001
  H            0.69034521      -2.37545694      -0.42864236
  H            3.35917442       0.17650601       3.09265017
  H            7.35266782      -1.99461311       2.90680702
  C            3.77952586      -1.21508453       1.76858172
  C            2.38242998      -2.55505538       0.04607681
  C            4.01771468      -4.38410490      -0.88761863
--
  N           -9.19704487      16.25449114     -19.00553393
  N           -9.40814920      14.28271439     -17.39322940
  H          -11.80814541      17.64774683     -21.16551258
  H          -14.78651176      14.37691436     -19.62731493
  H          -12.11768255      11.82495140     -16.10602240
  H           -8.12418914      13.99607052     -16.29186555
  C          -11.69733111      13.21654194     -17.43009085
  C          -13.09442699      14.55651280     -19.15259576
  C          -11.45914228      16.38556231     -20.08629120
units = au
no_com
no_reorient
}

set {
  e_convergence 10
  d_convergence 10
  scf_type df
  mp2_type df
  cc_type df
  freeze_core true
}

energy('sapt0/aug-cc-pvdz')

--------------------------------------------------------------------------

  //              Dimer HF             //
    Molecular point group: c1
  Charge       = 0
  Multiplicity = 1
  Basis Set: AUG-CC-PVDZ
    Blend: AUG-CC-PVDZ
  Basis Set: (AUG-CC-PVDZ AUX)
    Blend: AUG-CC-PVDZ-JKFIT
  @DF-RHF Final Energy:  -449.52466028939318
    Total Energy =                       -449.5246602893931822
  //            Monomer A HF           //
    Molecular point group: c1
  Multiplicity = 1
  Basis Set: AUG-CC-PVDZ
    Blend: AUG-CC-PVDZ
  Basis Set: (AUG-CC-PVDZ AUX)
    Blend: AUG-CC-PVDZ-JKFIT
  @DF-RHF Final Energy:  -224.76233952504384
    Total Energy =                       -224.7623395250438421
  //            Monomer B HF           //
    Molecular point group: c1

    Geometry (in Bohr), charge = 0, multiplicity = 1:

       Center              X                  Y                   Z               Mass
    ------------   -----------------  -----------------  -----------------  -----------------
      Gh(N)           6.279812100000    -4.253033720000     0.193138650000    14.003074004430
      Gh(N)           6.068707770000    -2.281256970000     1.805443170000    14.003074004430
      Gh(H)           3.668711560000    -5.646289410000    -1.966840010000     1.007825032230
      Gh(H)           0.690345210000    -2.375456940000    -0.428642360000     1.007825032230
      Gh(H)           3.359174420000     0.176506010000     3.092650170000     1.007825032230
      Gh(H)           7.352667820000    -1.994613110000     2.906807020000     1.007825032230
      Gh(C)           3.779525860000    -1.215084530000     1.768581720000    12.000000000000
      Gh(C)           2.382429980000    -2.555055380000     0.046076810000    12.000000000000
      Gh(C)           4.017714680000    -4.384104900000    -0.887618630000    12.000000000000
         N           -9.197044870000    16.254491140000   -19.005533930000    14.003074004430
         N           -9.408149200000    14.282714390000   -17.393229400000    14.003074004430
         H          -11.808145410000    17.647746830000   -21.165512580000     1.007825032230
         H          -14.786511760000    14.376914360000   -19.627314930000     1.007825032230
         H          -12.117682550000    11.824951400000   -16.106022400000     1.007825032230
         H           -8.124189140000    13.996070520000   -16.291865550000     1.007825032230
         C          -11.697331110000    13.216541940000   -17.430090850000    12.000000000000
         C          -13.094426990000    14.556512800000   -19.152595760000    12.000000000000
         C          -11.459142280000    16.385562310000   -20.086291200000    12.000000000000

  Charge       = 0
  Multiplicity = 1
  Basis Set: AUG-CC-PVDZ
    Blend: AUG-CC-PVDZ
  Basis Set: (AUG-CC-PVDZ AUX)
    Blend: AUG-CC-PVDZ-JKFIT

    Orbital Energies [Eh]
    ---------------------

    Doubly Occupied:

       1A    -15.636223     2A    -15.592313     3A    -11.279894
       4A    -11.237784     5A    -11.209891     6A     -1.386922
       7A     -1.121901     8A     -1.066898     9A     -0.872768
      10A     -0.837061    11A     -0.757292    12A     -0.645746
      13A     -0.620834    14A     -0.609140    15A     -0.583920
      16A     -0.461404    17A     -0.370721    18A     -0.346048

  @DF-RHF Final Energy:  -224.76233952674590

   => Energetics <=

    Nuclear Repulsion Energy =            166.6240563804595638
    One-Electron Energy =                -633.4992732841445786
    Two-Electron Energy =                 242.1128773769390818
    Total Energy =                       -224.7623395267459045

  Dipole Moment: [D]
     X:    -1.0235      Y:    -1.6055      Z:     1.4733     Total:     2.4075

    SAPT Results
  --------------------------------------------------------------------------------------------------------
    Electrostatics                  0.01884225 [mEh]       0.01182369 [kcal/mol]       0.04947031 [kJ/mol]
      Elst10,r                      0.01884225 [mEh]       0.01182369 [kcal/mol]       0.04947031 [kJ/mol]

    Exchange                        0.00000001 [mEh]       0.00000000 [kcal/mol]       0.00000002 [kJ/mol]
      Exch10                        0.00000001 [mEh]       0.00000000 [kcal/mol]       0.00000002 [kJ/mol]
      Exch10(S^2)                   0.00000001 [mEh]       0.00000000 [kcal/mol]       0.00000002 [kJ/mol]

    Induction                      -0.00007986 [mEh]      -0.00005011 [kcal/mol]      -0.00020966 [kJ/mol]
      Ind20,r                      -0.00013683 [mEh]      -0.00008587 [kcal/mol]      -0.00035926 [kJ/mol]
      Exch-Ind20,r                  0.00000001 [mEh]       0.00000001 [kcal/mol]       0.00000002 [kJ/mol]
      delta HF,r (2)                0.00005697 [mEh]       0.00003575 [kcal/mol]       0.00014957 [kJ/mol]

    Dispersion                     -0.00160924 [mEh]      -0.00100981 [kcal/mol]      -0.00422506 [kJ/mol]
      Disp20                       -0.00160924 [mEh]      -0.00100981 [kcal/mol]      -0.00422506 [kJ/mol]
      Exch-Disp20                   0.00000000 [mEh]       0.00000000 [kcal/mol]       0.00000000 [kJ/mol]
      Disp20 (SS)                  -0.00080462 [mEh]      -0.00050491 [kcal/mol]      -0.00211253 [kJ/mol]
      Disp20 (OS)                  -0.00080462 [mEh]      -0.00050491 [kcal/mol]      -0.00211253 [kJ/mol]
      Exch-Disp20 (SS)              0.00000000 [mEh]       0.00000000 [kcal/mol]       0.00000000 [kJ/mol]
      Exch-Disp20 (OS)              0.00000000 [mEh]       0.00000000 [kcal/mol]       0.00000000 [kJ/mol]

  Total HF                          0.01876240 [mEh]       0.01177358 [kcal/mol]       0.04926067 [kJ/mol]
  Total SAPT0                       0.01715316 [mEh]       0.01076377 [kcal/mol]       0.04503560 [kJ/mol]

  Special recipe for scaled SAPT0 (see Manual):
    Electrostatics sSAPT0           0.01884225 [mEh]       0.01182369 [kcal/mol]       0.04947031 [kJ/mol]
    Exchange sSAPT0                 0.00000001 [mEh]       0.00000000 [kcal/mol]       0.00000002 [kJ/mol]
    Induction sSAPT0               -0.00007986 [mEh]      -0.00005011 [kcal/mol]      -0.00020966 [kJ/mol]
    Dispersion sSAPT0              -0.00160924 [mEh]      -0.00100981 [kcal/mol]      -0.00422506 [kJ/mol]
  Total sSAPT0                      0.01715316 [mEh]       0.01076377 [kcal/mol]       0.04503560 [kJ/mol]
  --------------------------------------------------------------------------------------------------------

*** Psi4 exiting successfully. Buy a developer a beer!
