                               Psi4 1.4rc3

  ==> Input File <==

--------------------------------------------------------------------------
# PSI4 file produced by CrystaLattE

# Generated from:               pyrazole.xyz
# Psithon input for N-mer:      2mer-0+15
# Number of atoms per monomer:  [9, 9]
# Number of replicas:           1
# COM priority:                 1.718239892387e-04
# Minimum COM separations:      9.519
# Separation priority:          7.130476204813e-04
# Minimum monomer separations:  5.923
# Cutoff priority:              6.370273029599e-05
# Nuclear repulsion energy:     406.0543330198856

memory 7 GB

molecule Dimer_0_15 {
  N            6.27981210      -4.25303372       0.19313865
  N            6.06870777      -2.28125697       1.80544317
  H            3.66871156      -5.64628941      -1.96684001
  H            0.69034521      -2.37545694      -0.42864236
  H            3.35917442       0.17650601       3.09265017
  H            7.35266782      -1.99461311       2.90680702
  C            3.77952586      -1.21508453       1.76858172
  C            2.38242998      -2.55505538       0.04607681
  C            4.01771468      -4.38410490      -0.88761863
--
  N          -12.67871861       2.40090997      -4.81169931
  N          -12.55985635       4.43881700      -6.34887303
  H          -10.00555588       0.00000000      -4.09366896
  H           -7.11091932       2.44253874      -6.84880646
  H          -10.04734339       6.15558776      -8.75344277
  H          -14.02226457       5.24879406      -6.73463836
  C          -10.27701995       4.76899267      -7.37792188
  C           -8.79402751       2.83932046      -6.48799941
  C          -10.35533284       1.45415264      -4.89630146
units = au
no_com
no_reorient
}

set {
  e_convergence 10
  d_convergence 10
  scf_type df
  mp2_type df
  cc_type df
  freeze_core true
}

energy('sapt0/aug-cc-pvdz')

--------------------------------------------------------------------------

  //              Dimer HF             //
    Molecular point group: c1
  Charge       = 0
  Multiplicity = 1
  Basis Set: AUG-CC-PVDZ
    Blend: AUG-CC-PVDZ
  Basis Set: (AUG-CC-PVDZ AUX)
    Blend: AUG-CC-PVDZ-JKFIT
  @DF-RHF Final Energy:  -449.52486139771679
    Total Energy =                       -449.5248613977167906
  //            Monomer A HF           //
    Molecular point group: c1
  Multiplicity = 1
  Basis Set: AUG-CC-PVDZ
    Blend: AUG-CC-PVDZ
  Basis Set: (AUG-CC-PVDZ AUX)
    Blend: AUG-CC-PVDZ-JKFIT
  @DF-RHF Final Energy:  -224.76236828670883
    Total Energy =                       -224.7623682867088348
  //            Monomer B HF           //
    Molecular point group: c1

    Geometry (in Bohr), charge = 0, multiplicity = 1:

       Center              X                  Y                   Z               Mass
    ------------   -----------------  -----------------  -----------------  -----------------
      Gh(N)           6.279812100000    -4.253033720000     0.193138650000    14.003074004430
      Gh(N)           6.068707770000    -2.281256970000     1.805443170000    14.003074004430
      Gh(H)           3.668711560000    -5.646289410000    -1.966840010000     1.007825032230
      Gh(H)           0.690345210000    -2.375456940000    -0.428642360000     1.007825032230
      Gh(H)           3.359174420000     0.176506010000     3.092650170000     1.007825032230
      Gh(H)           7.352667820000    -1.994613110000     2.906807020000     1.007825032230
      Gh(C)           3.779525860000    -1.215084530000     1.768581720000    12.000000000000
      Gh(C)           2.382429980000    -2.555055380000     0.046076810000    12.000000000000
      Gh(C)           4.017714680000    -4.384104900000    -0.887618630000    12.000000000000
         N          -12.678718610000     2.400909970000    -4.811699310000    14.003074004430
         N          -12.559856350000     4.438817000000    -6.348873030000    14.003074004430
         H          -10.005555880000     0.000000000000    -4.093668960000     1.007825032230
         H           -7.110919320000     2.442538740000    -6.848806460000     1.007825032230
         H          -10.047343390000     6.155587760000    -8.753442770000     1.007825032230
         H          -14.022264570000     5.248794060000    -6.734638360000     1.007825032230
         C          -10.277019950000     4.768992670000    -7.377921880000    12.000000000000
         C           -8.794027510000     2.839320460000    -6.487999410000    12.000000000000
         C          -10.355332840000     1.454152640000    -4.896301460000    12.000000000000

  Charge       = 0
  Multiplicity = 1
  Basis Set: AUG-CC-PVDZ
    Blend: AUG-CC-PVDZ
  Basis Set: (AUG-CC-PVDZ AUX)
    Blend: AUG-CC-PVDZ-JKFIT

    Orbital Energies [Eh]
    ---------------------

    Doubly Occupied:

       1A    -15.636238     2A    -15.592291     3A    -11.279902
       4A    -11.237754     5A    -11.209883     6A     -1.387004
       7A     -1.121896     8A     -1.066931     9A     -0.872762
      10A     -0.837041    11A     -0.757275    12A     -0.645750
      13A     -0.620831    14A     -0.609180    15A     -0.583908
      16A     -0.461415    17A     -0.370716    18A     -0.346057

  @DF-RHF Final Energy:  -224.76245600629676

   => Energetics <=

    Nuclear Repulsion Energy =            166.6286027883021461
    One-Electron Energy =                -633.5084513940129227
    Two-Electron Energy =                 242.1173925994140177
    Total Energy =                       -224.7624560062967589

  Dipole Moment: [D]
     X:     0.7400      Y:     1.4337      Z:    -1.7872     Total:     2.4077

    SAPT Results
  --------------------------------------------------------------------------------------------------------
    Electrostatics                 -0.03641652 [mEh]      -0.02285171 [kcal/mol]      -0.09561155 [kJ/mol]
      Elst10,r                     -0.03641652 [mEh]      -0.02285171 [kcal/mol]      -0.09561155 [kJ/mol]

    Exchange                        0.00001812 [mEh]       0.00001137 [kcal/mol]       0.00004758 [kJ/mol]
      Exch10                        0.00001812 [mEh]       0.00001137 [kcal/mol]       0.00004758 [kJ/mol]
      Exch10(S^2)                   0.00001812 [mEh]       0.00001137 [kcal/mol]       0.00004758 [kJ/mol]

    Induction                      -0.00070632 [mEh]      -0.00044322 [kcal/mol]      -0.00185443 [kJ/mol]
      Ind20,r                      -0.00112614 [mEh]      -0.00070666 [kcal/mol]      -0.00295668 [kJ/mol]
      Exch-Ind20,r                  0.00003342 [mEh]       0.00002097 [kcal/mol]       0.00008773 [kJ/mol]
      delta HF,r (2)                0.00038641 [mEh]       0.00024247 [kcal/mol]       0.00101451 [kJ/mol]

    Dispersion                     -0.05482436 [mEh]      -0.03440281 [kcal/mol]      -0.14394134 [kJ/mol]
      Disp20                       -0.05482955 [mEh]      -0.03440606 [kcal/mol]      -0.14395496 [kJ/mol]
      Exch-Disp20                   0.00000519 [mEh]       0.00000326 [kcal/mol]       0.00001362 [kJ/mol]
      Disp20 (SS)                  -0.02741477 [mEh]      -0.01720303 [kcal/mol]      -0.07197748 [kJ/mol]
      Disp20 (OS)                  -0.02741477 [mEh]      -0.01720303 [kcal/mol]      -0.07197748 [kJ/mol]
      Exch-Disp20 (SS)              0.00000414 [mEh]       0.00000260 [kcal/mol]       0.00001086 [kJ/mol]
      Exch-Disp20 (OS)              0.00000105 [mEh]       0.00000066 [kcal/mol]       0.00000276 [kJ/mol]

  Total HF                         -0.03710471 [mEh]      -0.02328356 [kcal/mol]      -0.09741841 [kJ/mol]
  Total SAPT0                      -0.09192907 [mEh]      -0.05768636 [kcal/mol]      -0.24135975 [kJ/mol]

  Special recipe for scaled SAPT0 (see Manual):
    Electrostatics sSAPT0          -0.03641652 [mEh]      -0.02285171 [kcal/mol]      -0.09561155 [kJ/mol]
    Exchange sSAPT0                 0.00001812 [mEh]       0.00001137 [kcal/mol]       0.00004758 [kJ/mol]
    Induction sSAPT0               -0.00070632 [mEh]      -0.00044322 [kcal/mol]      -0.00185443 [kJ/mol]
    Dispersion sSAPT0              -0.05482436 [mEh]      -0.03440281 [kcal/mol]      -0.14394134 [kJ/mol]
  Total sSAPT0                     -0.09192907 [mEh]      -0.05768636 [kcal/mol]      -0.24135975 [kJ/mol]
  --------------------------------------------------------------------------------------------------------

*** Psi4 exiting successfully. Buy a developer a beer!
