                               Psi4 1.4rc3

  ==> Input File <==

--------------------------------------------------------------------------
# PSI4 file produced by CrystaLattE

# Generated from:               pyrazole.xyz
# Psithon input for N-mer:      2mer-0+519
# Number of atoms per monomer:  [9, 9]
# Number of replicas:           1
# COM priority:                 1.574601326116e-05
# Minimum COM separations:      21.113
# Separation priority:          2.171481210461e-05
# Minimum monomer separations:  18.968
# Cutoff priority:              6.058169698729e-07
# Nuclear repulsion energy:     365.6982716821324

memory 7 GB

molecule Dimer_0_519 {
  N            6.27981210      -4.25303372       0.19313865
  N            6.06870777      -2.28125697       1.80544317
  H            3.66871156      -5.64628941      -1.96684001
  H            0.69034521      -2.37545694      -0.42864236
  H            3.35917442       0.17650601       3.09265017
  H            7.35266782      -1.99461311       2.90680702
  C            3.77952586      -1.21508453       1.76858172
  C            2.38242998      -2.55505538       0.04607681
  C            4.01771468      -4.38410490      -0.88761863
--
  N          -12.67871861     -21.38696250     -30.40992941
  N          -12.55985635     -19.34905546     -31.94710312
  H          -10.00555588     -23.78787247     -29.69189905
  H           -7.11091932     -21.34533372     -32.44703656
  H          -10.04734339     -17.63228471     -34.35167287
  H          -14.02226457     -18.53907841     -32.33286845
  C          -10.27701995     -19.01887980     -32.97615197
  C           -8.79402751     -20.94855201     -32.08622950
  C          -10.35533284     -22.33371982     -30.49453156
units = au
no_com
no_reorient
}

set {
  e_convergence 10
  d_convergence 10
  scf_type df
  mp2_type df
  cc_type df
  freeze_core true
}

energy('sapt0/aug-cc-pvdz')

--------------------------------------------------------------------------

  //              Dimer HF             //
    Molecular point group: c1
  Charge       = 0
  Multiplicity = 1
  Basis Set: AUG-CC-PVDZ
    Blend: AUG-CC-PVDZ
  Basis Set: (AUG-CC-PVDZ AUX)
    Blend: AUG-CC-PVDZ-JKFIT
  @DF-RHF Final Energy:  -449.52477455444580
    Total Energy =                       -449.5247745544457985
  //            Monomer A HF           //
    Molecular point group: c1
  Multiplicity = 1
  Basis Set: AUG-CC-PVDZ
    Blend: AUG-CC-PVDZ
  Basis Set: (AUG-CC-PVDZ AUX)
    Blend: AUG-CC-PVDZ-JKFIT
  @DF-RHF Final Energy:  -224.76233952066482
    Total Energy =                       -224.7623395206648240
  //            Monomer B HF           //
    Molecular point group: c1

    Geometry (in Bohr), charge = 0, multiplicity = 1:

       Center              X                  Y                   Z               Mass
    ------------   -----------------  -----------------  -----------------  -----------------
      Gh(N)           6.279812100000    -4.253033720000     0.193138650000    14.003074004430
      Gh(N)           6.068707770000    -2.281256970000     1.805443170000    14.003074004430
      Gh(H)           3.668711560000    -5.646289410000    -1.966840010000     1.007825032230
      Gh(H)           0.690345210000    -2.375456940000    -0.428642360000     1.007825032230
      Gh(H)           3.359174420000     0.176506010000     3.092650170000     1.007825032230
      Gh(H)           7.352667820000    -1.994613110000     2.906807020000     1.007825032230
      Gh(C)           3.779525860000    -1.215084530000     1.768581720000    12.000000000000
      Gh(C)           2.382429980000    -2.555055380000     0.046076810000    12.000000000000
      Gh(C)           4.017714680000    -4.384104900000    -0.887618630000    12.000000000000
         N          -12.678718610000   -21.386962500000   -30.409929410000    14.003074004430
         N          -12.559856350000   -19.349055460000   -31.947103120000    14.003074004430
         H          -10.005555880000   -23.787872470000   -29.691899050000     1.007825032230
         H           -7.110919320000   -21.345333720000   -32.447036560000     1.007825032230
         H          -10.047343390000   -17.632284710000   -34.351672870000     1.007825032230
         H          -14.022264570000   -18.539078410000   -32.332868450000     1.007825032230
         C          -10.277019950000   -19.018879800000   -32.976151970000    12.000000000000
         C           -8.794027510000   -20.948552010000   -32.086229500000    12.000000000000
         C          -10.355332840000   -22.333719820000   -30.494531560000    12.000000000000

  Charge       = 0
  Multiplicity = 1
  Basis Set: AUG-CC-PVDZ
    Blend: AUG-CC-PVDZ
  Basis Set: (AUG-CC-PVDZ AUX)
    Blend: AUG-CC-PVDZ-JKFIT

    Orbital Energies [Eh]
    ---------------------

    Doubly Occupied:

       1A    -15.636233     2A    -15.592291     3A    -11.279903
       4A    -11.237759     5A    -11.209884     6A     -1.387001
       7A     -1.121894     8A     -1.066928     9A     -0.872759
      10A     -0.837039    11A     -0.757272    12A     -0.645745
      13A     -0.620828    14A     -0.609177    15A     -0.583905
      16A     -0.461413    17A     -0.370715    18A     -0.346055

  @DF-RHF Final Energy:  -224.76243506409702

   => Energetics <=

    Nuclear Repulsion Energy =            166.6286028947134525
    One-Electron Energy =                -633.5084735828158955
    Two-Electron Energy =                 242.1174356240053953
    Total Energy =                       -224.7624350640970192

  Dipole Moment: [D]
     X:     0.7394      Y:     1.4336      Z:    -1.7871     Total:     2.4074

    SAPT Results
  --------------------------------------------------------------------------------------------------------
    Electrostatics                 -0.00002972 [mEh]      -0.00001865 [kcal/mol]      -0.00007804 [kJ/mol]
      Elst10,r                     -0.00002972 [mEh]      -0.00001865 [kcal/mol]      -0.00007804 [kJ/mol]

    Exchange                        0.00000000 [mEh]       0.00000000 [kcal/mol]       0.00000000 [kJ/mol]
      Exch10                        0.00000000 [mEh]       0.00000000 [kcal/mol]       0.00000000 [kJ/mol]
      Exch10(S^2)                   0.00000000 [mEh]       0.00000000 [kcal/mol]       0.00000000 [kJ/mol]

    Induction                       0.00006004 [mEh]       0.00003767 [kcal/mol]       0.00015763 [kJ/mol]
      Ind20,r                      -0.00001231 [mEh]      -0.00000772 [kcal/mol]      -0.00003232 [kJ/mol]
      Exch-Ind20,r                  0.00000000 [mEh]       0.00000000 [kcal/mol]       0.00000000 [kJ/mol]
      delta HF,r (2)                0.00007235 [mEh]       0.00004540 [kcal/mol]       0.00018995 [kJ/mol]

    Dispersion                     -0.00027542 [mEh]      -0.00017283 [kcal/mol]      -0.00072313 [kJ/mol]
      Disp20                       -0.00027542 [mEh]      -0.00017283 [kcal/mol]      -0.00072313 [kJ/mol]
      Exch-Disp20                   0.00000000 [mEh]       0.00000000 [kcal/mol]       0.00000000 [kJ/mol]
      Disp20 (SS)                  -0.00013771 [mEh]      -0.00008642 [kcal/mol]      -0.00036156 [kJ/mol]
      Disp20 (OS)                  -0.00013771 [mEh]      -0.00008642 [kcal/mol]      -0.00036156 [kJ/mol]
      Exch-Disp20 (SS)              0.00000000 [mEh]       0.00000000 [kcal/mol]       0.00000000 [kJ/mol]
      Exch-Disp20 (OS)              0.00000000 [mEh]       0.00000000 [kcal/mol]       0.00000000 [kJ/mol]

  Total HF                          0.00003032 [mEh]       0.00001902 [kcal/mol]       0.00007959 [kJ/mol]
  Total SAPT0                      -0.00024511 [mEh]      -0.00015381 [kcal/mol]      -0.00064353 [kJ/mol]

  Special recipe for scaled SAPT0 (see Manual):
    Electrostatics sSAPT0          -0.00002972 [mEh]      -0.00001865 [kcal/mol]      -0.00007804 [kJ/mol]
    Exchange sSAPT0                 0.00000000 [mEh]       0.00000000 [kcal/mol]       0.00000000 [kJ/mol]
    Induction sSAPT0                0.00006004 [mEh]       0.00003767 [kcal/mol]       0.00015763 [kJ/mol]
    Dispersion sSAPT0              -0.00027542 [mEh]      -0.00017283 [kcal/mol]      -0.00072313 [kJ/mol]
  Total sSAPT0                     -0.00024511 [mEh]      -0.00015381 [kcal/mol]      -0.00064353 [kJ/mol]
  --------------------------------------------------------------------------------------------------------

*** Psi4 exiting successfully. Buy a developer a beer!
