                               Psi4 1.4rc3

  ==> Input File <==

--------------------------------------------------------------------------
# PSI4 file produced by CrystaLattE

# Generated from:               pyrazole.xyz
# Psithon input for N-mer:      2mer-0+69
# Number of atoms per monomer:  [9, 9]
# Number of replicas:           1
# COM priority:                 1.806405846010e-04
# Minimum COM separations:      9.361
# Separation priority:          5.222903058081e-04
# Minimum monomer separations:  6.571
# Cutoff priority:              4.206129308398e-05
# Nuclear repulsion energy:     406.43754388112256

memory 7 GB

molecule Dimer_0_69 {
  N            6.27981210      -4.25303372       0.19313865
  N            6.06870777      -2.28125697       1.80544317
  H            3.66871156      -5.64628941      -1.96684001
  H            0.69034521      -2.37545694      -0.42864236
  H            3.35917442       0.17650601       3.09265017
  H            7.35266782      -1.99461311       2.90680702
  C            3.77952586      -1.21508453       1.76858172
  C            2.38242998      -2.55505538       0.04607681
  C            4.01771468      -4.38410490      -0.88761863
--
  N           18.27499532       2.40090997       7.98741574
  N           18.39385758       4.43881700       6.45024202
  H           20.94815806       0.00000000       8.70544609
  H           23.84279462       2.44253874       5.95030859
  H           20.90637054       6.15558776       4.04567228
  H           16.93144937       5.24879406       6.06447669
  C           20.67669399       4.76899267       5.42119317
  C           22.15968642       2.83932046       6.31111564
  C           20.59838109       1.45415264       7.90281359
units = au
no_com
no_reorient
}

set {
  e_convergence 10
  d_convergence 10
  scf_type df
  mp2_type df
  cc_type df
  freeze_core true
}

energy('sapt0/aug-cc-pvdz')

--------------------------------------------------------------------------

  //              Dimer HF             //
    Molecular point group: c1
  Charge       = 0
  Multiplicity = 1
  Basis Set: AUG-CC-PVDZ
    Blend: AUG-CC-PVDZ
  Basis Set: (AUG-CC-PVDZ AUX)
    Blend: AUG-CC-PVDZ-JKFIT
  @DF-RHF Final Energy:  -449.52494842960289
    Total Energy =                       -449.5249484296028868
  //            Monomer A HF           //
    Molecular point group: c1
  Multiplicity = 1
  Basis Set: AUG-CC-PVDZ
    Blend: AUG-CC-PVDZ
  Basis Set: (AUG-CC-PVDZ AUX)
    Blend: AUG-CC-PVDZ-JKFIT
  @DF-RHF Final Energy:  -224.76234476289483
    Total Energy =                       -224.7623447628948270
  //            Monomer B HF           //
    Molecular point group: c1

    Geometry (in Bohr), charge = 0, multiplicity = 1:

       Center              X                  Y                   Z               Mass
    ------------   -----------------  -----------------  -----------------  -----------------
      Gh(N)           6.279812100000    -4.253033720000     0.193138650000    14.003074004430
      Gh(N)           6.068707770000    -2.281256970000     1.805443170000    14.003074004430
      Gh(H)           3.668711560000    -5.646289410000    -1.966840010000     1.007825032230
      Gh(H)           0.690345210000    -2.375456940000    -0.428642360000     1.007825032230
      Gh(H)           3.359174420000     0.176506010000     3.092650170000     1.007825032230
      Gh(H)           7.352667820000    -1.994613110000     2.906807020000     1.007825032230
      Gh(C)           3.779525860000    -1.215084530000     1.768581720000    12.000000000000
      Gh(C)           2.382429980000    -2.555055380000     0.046076810000    12.000000000000
      Gh(C)           4.017714680000    -4.384104900000    -0.887618630000    12.000000000000
         N           18.274995320000     2.400909970000     7.987415740000    14.003074004430
         N           18.393857580000     4.438817000000     6.450242020000    14.003074004430
         H           20.948158060000     0.000000000000     8.705446090000     1.007825032230
         H           23.842794620000     2.442538740000     5.950308590000     1.007825032230
         H           20.906370540000     6.155587760000     4.045672280000     1.007825032230
         H           16.931449370000     5.248794060000     6.064476690000     1.007825032230
         C           20.676693990000     4.768992670000     5.421193170000    12.000000000000
         C           22.159686420000     2.839320460000     6.311115640000    12.000000000000
         C           20.598381090000     1.454152640000     7.902813590000    12.000000000000

  Charge       = 0
  Multiplicity = 1
  Basis Set: AUG-CC-PVDZ
    Blend: AUG-CC-PVDZ
  Basis Set: (AUG-CC-PVDZ AUX)
    Blend: AUG-CC-PVDZ-JKFIT

    Orbital Energies [Eh]
    ---------------------

    Doubly Occupied:

       1A    -15.636234     2A    -15.592298     3A    -11.279902
       4A    -11.237756     5A    -11.209881     6A     -1.387002
       7A     -1.121895     8A     -1.066927     9A     -0.872761
      10A     -0.837039    11A     -0.757272    12A     -0.645746
      13A     -0.620828    14A     -0.609177    15A     -0.583906
      16A     -0.461415    17A     -0.370714    18A     -0.346056

  @DF-RHF Final Energy:  -224.76244709699077

   => Energetics <=

    Nuclear Repulsion Energy =            166.6286027396205611
    One-Electron Energy =                -633.5084787869292313
    Two-Electron Energy =                 242.1174289503179295
    Total Energy =                       -224.7624470969907691

  Dipole Moment: [D]
     X:     0.7389      Y:     1.4337      Z:    -1.7872     Total:     2.4074

    SAPT Results
  --------------------------------------------------------------------------------------------------------
    Electrostatics                 -0.15163327 [mEh]      -0.09515132 [kcal/mol]      -0.39811310 [kJ/mol]
      Elst10,r                     -0.15163327 [mEh]      -0.09515132 [kcal/mol]      -0.39811310 [kJ/mol]

    Exchange                        0.00000017 [mEh]       0.00000011 [kcal/mol]       0.00000045 [kJ/mol]
      Exch10                        0.00000017 [mEh]       0.00000011 [kcal/mol]       0.00000045 [kJ/mol]
      Exch10(S^2)                   0.00000017 [mEh]       0.00000011 [kcal/mol]       0.00000045 [kJ/mol]

    Induction                      -0.00493662 [mEh]      -0.00309777 [kcal/mol]      -0.01296109 [kJ/mol]
      Ind20,r                      -0.00484205 [mEh]      -0.00303843 [kcal/mol]      -0.01271279 [kJ/mol]
      Exch-Ind20,r                  0.00000502 [mEh]       0.00000315 [kcal/mol]       0.00001317 [kJ/mol]
      delta HF,r (2)               -0.00009959 [mEh]      -0.00006249 [kcal/mol]      -0.00026147 [kJ/mol]

    Dispersion                     -0.04238908 [mEh]      -0.02659955 [kcal/mol]      -0.11129251 [kJ/mol]
      Disp20                       -0.04239037 [mEh]      -0.02660036 [kcal/mol]      -0.11129590 [kJ/mol]
      Exch-Disp20                   0.00000129 [mEh]       0.00000081 [kcal/mol]       0.00000339 [kJ/mol]
      Disp20 (SS)                  -0.02119518 [mEh]      -0.01330018 [kcal/mol]      -0.05564795 [kJ/mol]
      Disp20 (OS)                  -0.02119518 [mEh]      -0.01330018 [kcal/mol]      -0.05564795 [kJ/mol]
      Exch-Disp20 (SS)              0.00000106 [mEh]       0.00000066 [kcal/mol]       0.00000277 [kJ/mol]
      Exch-Disp20 (OS)              0.00000023 [mEh]       0.00000015 [kcal/mol]       0.00000061 [kJ/mol]

  Total HF                         -0.15656972 [mEh]      -0.09824898 [kcal/mol]      -0.41107374 [kJ/mol]
  Total SAPT0                      -0.19895880 [mEh]      -0.12484853 [kcal/mol]      -0.52236625 [kJ/mol]

  Special recipe for scaled SAPT0 (see Manual):
    Electrostatics sSAPT0          -0.15163327 [mEh]      -0.09515132 [kcal/mol]      -0.39811310 [kJ/mol]
    Exchange sSAPT0                 0.00000017 [mEh]       0.00000011 [kcal/mol]       0.00000045 [kJ/mol]
    Induction sSAPT0               -0.00493662 [mEh]      -0.00309777 [kcal/mol]      -0.01296109 [kJ/mol]
    Dispersion sSAPT0              -0.04238908 [mEh]      -0.02659955 [kcal/mol]      -0.11129251 [kJ/mol]
  Total sSAPT0                     -0.19895880 [mEh]      -0.12484853 [kcal/mol]      -0.52236625 [kJ/mol]
  --------------------------------------------------------------------------------------------------------

*** Psi4 exiting successfully. Buy a developer a beer!
