                               Psi4 1.4rc3

  ==> Input File <==

--------------------------------------------------------------------------
# PSI4 file produced by CrystaLattE

# Generated from:               pyrazole.xyz
# Psithon input for N-mer:      2mer-0+1
# Number of atoms per monomer:  [9, 9]
# Number of replicas:           2
# COM priority:                 1.047867954721e-03
# Minimum COM separations:      5.210
# Separation priority:          7.079789645323e-03
# Minimum monomer separations:  2.756
# Cutoff priority:              1.359441339001e-03
# Nuclear repulsion energy:     465.57899234268274

memory 7 GB

molecule Dimer_0_1 {
  N            6.27981210      -4.25303372       0.19313865
  N            6.06870777      -2.28125697       1.80544317
  H            3.66871156      -5.64628941      -1.96684001
  H            0.69034521      -2.37545694      -0.42864236
  H            3.35917442       0.17650601       3.09265017
  H            7.35266782      -1.99461311       2.90680702
  C            3.77952586      -1.21508453       1.76858172
  C            2.38242998      -2.55505538       0.04607681
  C            4.01771468      -4.38410490      -0.88761863
--
  N           -1.45861638       4.36055490      -0.14706183
  N           -1.66972071       2.38877815      -1.75936635
  H           -4.06971692       5.75381059       2.01291682
  H           -7.04808328       2.48297813       0.47471918
  H           -4.37925406      -0.06898483      -3.04657335
  H           -0.38576066       2.10213429      -2.86073020
  C           -3.95890263       1.32260571      -1.72250490
  C           -5.35599851       2.66257657       0.00000000
  C           -3.72071380       4.49162608       0.93369544
units = au
no_com
no_reorient
}

set {
  e_convergence 10
  d_convergence 10
  scf_type df
  mp2_type df
  cc_type df
  freeze_core true
}

energy('sapt0/aug-cc-pvdz')

--------------------------------------------------------------------------

  //              Dimer HF             //
    Molecular point group: c1
  Charge       = 0
  Multiplicity = 1
  Basis Set: AUG-CC-PVDZ
    Blend: AUG-CC-PVDZ
  Basis Set: (AUG-CC-PVDZ AUX)
    Blend: AUG-CC-PVDZ-JKFIT
  @DF-RHF Final Energy:  -449.52563667563874
    Total Energy =                       -449.5256366756387933
  //            Monomer A HF           //
    Molecular point group: c1
  Multiplicity = 1
  Basis Set: AUG-CC-PVDZ
    Blend: AUG-CC-PVDZ
  Basis Set: (AUG-CC-PVDZ AUX)
    Blend: AUG-CC-PVDZ-JKFIT
  @DF-RHF Final Energy:  -224.76267258060116
    Total Energy =                       -224.7626725806011621
  //            Monomer B HF           //
    Molecular point group: c1

    Geometry (in Bohr), charge = 0, multiplicity = 1:

       Center              X                  Y                   Z               Mass
    ------------   -----------------  -----------------  -----------------  -----------------
      Gh(N)           6.279812100000    -4.253033720000     0.193138650000    14.003074004430
      Gh(N)           6.068707770000    -2.281256970000     1.805443170000    14.003074004430
      Gh(H)           3.668711560000    -5.646289410000    -1.966840010000     1.007825032230
      Gh(H)           0.690345210000    -2.375456940000    -0.428642360000     1.007825032230
      Gh(H)           3.359174420000     0.176506010000     3.092650170000     1.007825032230
      Gh(H)           7.352667820000    -1.994613110000     2.906807020000     1.007825032230
      Gh(C)           3.779525860000    -1.215084530000     1.768581720000    12.000000000000
      Gh(C)           2.382429980000    -2.555055380000     0.046076810000    12.000000000000
      Gh(C)           4.017714680000    -4.384104900000    -0.887618630000    12.000000000000
         N           -1.458616380000     4.360554900000    -0.147061830000    14.003074004430
         N           -1.669720710000     2.388778150000    -1.759366350000    14.003074004430
         H           -4.069716920000     5.753810590000     2.012916820000     1.007825032230
         H           -7.048083280000     2.482978130000     0.474719180000     1.007825032230
         H           -4.379254060000    -0.068984830000    -3.046573350000     1.007825032230
         H           -0.385760660000     2.102134290000    -2.860730200000     1.007825032230
         C           -3.958902630000     1.322605710000    -1.722504900000    12.000000000000
         C           -5.355998510000     2.662576570000     0.000000000000    12.000000000000
         C           -3.720713800000     4.491626080000     0.933695440000    12.000000000000

  Charge       = 0
  Multiplicity = 1
  Basis Set: AUG-CC-PVDZ
    Blend: AUG-CC-PVDZ
  Basis Set: (AUG-CC-PVDZ AUX)
    Blend: AUG-CC-PVDZ-JKFIT

    Orbital Energies [Eh]
    ---------------------

    Doubly Occupied:

       1A    -15.636227     2A    -15.592318     3A    -11.279867
       4A    -11.237771     5A    -11.209852     6A     -1.386872
       7A     -1.121860     8A     -1.066846     9A     -0.872732
      10A     -0.837032    11A     -0.757251    12A     -0.645710
      13A     -0.620798    14A     -0.609122    15A     -0.583878
      16A     -0.461373    17A     -0.370698    18A     -0.346026

  @DF-RHF Final Energy:  -224.76266815585740

   => Energetics <=

    Nuclear Repulsion Energy =            166.6240564203691576
    One-Electron Energy =                -633.5009839525810094
    Two-Electron Energy =                 242.1142593763544824
    Total Energy =                       -224.7626681558573978

  Dipole Moment: [D]
     X:    -1.0218      Y:    -1.6052      Z:    -1.4704     Total:     2.4048

    SAPT Results
  --------------------------------------------------------------------------------------------------------
    Electrostatics                 -2.24084327 [mEh]      -1.40615038 [kcal/mol]      -5.88333320 [kJ/mol]
      Elst10,r                     -2.24084327 [mEh]      -1.40615038 [kcal/mol]      -5.88333320 [kJ/mol]

    Exchange                        2.30624655 [mEh]       1.44719156 [kcal/mol]       6.05504948 [kJ/mol]
      Exch10                        2.30624655 [mEh]       1.44719156 [kcal/mol]       6.05504948 [kJ/mol]
      Exch10(S^2)                   2.30262744 [mEh]       1.44492053 [kcal/mol]       6.04554752 [kJ/mol]

    Induction                      -0.36134245 [mEh]      -0.22674581 [kcal/mol]      -0.94870448 [kJ/mol]
      Ind20,r                      -0.92403911 [mEh]      -0.57984330 [kcal/mol]      -2.42606435 [kJ/mol]
      Exch-Ind20,r                  0.71891956 [mEh]       0.45112884 [kcal/mol]       1.88752305 [kJ/mol]
      delta HF,r (2)               -0.15622291 [mEh]      -0.09803135 [kcal/mol]      -0.41016318 [kJ/mol]

    Dispersion                     -3.11609133 [mEh]      -1.95537683 [kcal/mol]      -8.18129665 [kJ/mol]
      Disp20                       -3.38905589 [mEh]      -2.12666468 [kcal/mol]      -8.89796501 [kJ/mol]
      Exch-Disp20                   0.27296456 [mEh]       0.17128785 [kcal/mol]       0.71666835 [kJ/mol]
      Disp20 (SS)                  -1.69452794 [mEh]      -1.06333234 [kcal/mol]      -4.44898250 [kJ/mol]
      Disp20 (OS)                  -1.69452794 [mEh]      -1.06333234 [kcal/mol]      -4.44898250 [kJ/mol]
      Exch-Disp20 (SS)              0.17565589 [mEh]       0.11022574 [kcal/mol]       0.46118448 [kJ/mol]
      Exch-Disp20 (OS)              0.09730867 [mEh]       0.06106211 [kcal/mol]       0.25548387 [kJ/mol]

  Total HF                         -0.29593918 [mEh]      -0.18570464 [kcal/mol]      -0.77698821 [kJ/mol]
  Total SAPT0                      -3.41203051 [mEh]      -2.14108147 [kcal/mol]      -8.95828487 [kJ/mol]

  Special recipe for scaled SAPT0 (see Manual):
    Electrostatics sSAPT0          -2.24084327 [mEh]      -1.40615038 [kcal/mol]      -5.88333320 [kJ/mol]
    Exchange sSAPT0                 2.30624655 [mEh]       1.44719156 [kcal/mol]       6.05504948 [kJ/mol]
    Induction sSAPT0               -0.35794729 [mEh]      -0.22461531 [kcal/mol]      -0.93979047 [kJ/mol]
    Dispersion sSAPT0              -3.11480223 [mEh]      -1.95456791 [kcal/mol]      -8.17791212 [kJ/mol]
  Total sSAPT0                     -3.40734624 [mEh]      -2.13814204 [kcal/mol]      -8.94598631 [kJ/mol]
  --------------------------------------------------------------------------------------------------------

*** Psi4 exiting successfully. Buy a developer a beer!
