                               Psi4 1.4rc3

  ==> Input File <==

--------------------------------------------------------------------------
# PSI4 file produced by CrystaLattE

# Generated from:               pyrazole.xyz
# Psithon input for N-mer:      2mer-0+148
# Number of atoms per monomer:  [9, 9]
# Number of replicas:           1
# COM priority:                 5.748113457489e-05
# Minimum COM separations:      13.712
# Separation priority:          1.074301727147e-04
# Minimum monomer separations:  11.132
# Cutoff priority:              5.107029485400e-06
# Nuclear repulsion energy:     383.23658080045055

memory 7 GB

molecule Dimer_0_148 {
  N            6.27981210      -4.25303372       0.19313865
  N            6.06870777      -2.28125697       1.80544317
  H            3.66871156      -5.64628941      -1.96684001
  H            0.69034521      -2.37545694      -0.42864236
  H            3.35917442       0.17650601       3.09265017
  H            7.35266782      -1.99461311       2.90680702
  C            3.77952586      -1.21508453       1.76858172
  C            2.38242998      -2.55505538       0.04607681
  C            4.01771468      -4.38410490      -0.88761863
--
  N            2.79813836     -21.38696250      20.78653078
  N            2.91700062     -19.34905546      19.24935707
  H            5.47130109     -23.78787247      21.50456114
  H            8.36593765     -21.34533372      18.74942363
  H            5.42951358     -17.63228471      16.84478732
  H            1.45459240     -18.53907841      18.86359174
  C            5.19983702     -19.01887980      18.22030822
  C            6.68282945     -20.94855201      19.11023069
  C            5.12152412     -22.33371982      20.70192863
units = au
no_com
no_reorient
}

set {
  e_convergence 10
  d_convergence 10
  scf_type df
  mp2_type df
  cc_type df
  freeze_core true
}

energy('sapt0/aug-cc-pvdz')

--------------------------------------------------------------------------

  //              Dimer HF             //
    Molecular point group: c1
  Charge       = 0
  Multiplicity = 1
  Basis Set: AUG-CC-PVDZ
    Blend: AUG-CC-PVDZ
  Basis Set: (AUG-CC-PVDZ AUX)
    Blend: AUG-CC-PVDZ-JKFIT
  @DF-RHF Final Energy:  -449.52480032234143
    Total Energy =                       -449.5248003223414344
  //            Monomer A HF           //
    Molecular point group: c1
  Multiplicity = 1
  Basis Set: AUG-CC-PVDZ
    Blend: AUG-CC-PVDZ
  Basis Set: (AUG-CC-PVDZ AUX)
    Blend: AUG-CC-PVDZ-JKFIT
  @DF-RHF Final Energy:  -224.76233967581206
    Total Energy =                       -224.7623396758120577
  //            Monomer B HF           //
    Molecular point group: c1

    Geometry (in Bohr), charge = 0, multiplicity = 1:

       Center              X                  Y                   Z               Mass
    ------------   -----------------  -----------------  -----------------  -----------------
      Gh(N)           6.279812100000    -4.253033720000     0.193138650000    14.003074004430
      Gh(N)           6.068707770000    -2.281256970000     1.805443170000    14.003074004430
      Gh(H)           3.668711560000    -5.646289410000    -1.966840010000     1.007825032230
      Gh(H)           0.690345210000    -2.375456940000    -0.428642360000     1.007825032230
      Gh(H)           3.359174420000     0.176506010000     3.092650170000     1.007825032230
      Gh(H)           7.352667820000    -1.994613110000     2.906807020000     1.007825032230
      Gh(C)           3.779525860000    -1.215084530000     1.768581720000    12.000000000000
      Gh(C)           2.382429980000    -2.555055380000     0.046076810000    12.000000000000
      Gh(C)           4.017714680000    -4.384104900000    -0.887618630000    12.000000000000
         N            2.798138360000   -21.386962500000    20.786530780000    14.003074004430
         N            2.917000620000   -19.349055460000    19.249357070000    14.003074004430
         H            5.471301090000   -23.787872470000    21.504561140000     1.007825032230
         H            8.365937650000   -21.345333720000    18.749423630000     1.007825032230
         H            5.429513580000   -17.632284710000    16.844787320000     1.007825032230
         H            1.454592400000   -18.539078410000    18.863591740000     1.007825032230
         C            5.199837020000   -19.018879800000    18.220308220000    12.000000000000
         C            6.682829450000   -20.948552010000    19.110230690000    12.000000000000
         C            5.121524120000   -22.333719820000    20.701928630000    12.000000000000

  Charge       = 0
  Multiplicity = 1
  Basis Set: AUG-CC-PVDZ
    Blend: AUG-CC-PVDZ
  Basis Set: (AUG-CC-PVDZ AUX)
    Blend: AUG-CC-PVDZ-JKFIT

    Orbital Energies [Eh]
    ---------------------

    Doubly Occupied:

       1A    -15.636233     2A    -15.592291     3A    -11.279903
       4A    -11.237759     5A    -11.209884     6A     -1.387001
       7A     -1.121894     8A     -1.066928     9A     -0.872759
      10A     -0.837039    11A     -0.757272    12A     -0.645745
      13A     -0.620828    14A     -0.609177    15A     -0.583905
      16A     -0.461413    17A     -0.370715    18A     -0.346055

  @DF-RHF Final Energy:  -224.76243512615255

   => Energetics <=

    Nuclear Repulsion Energy =            166.6286030247610483
    One-Electron Energy =                -633.5084741006232889
    Two-Electron Energy =                 242.1174359497096873
    Total Energy =                       -224.7624351261525533

  Dipole Moment: [D]
     X:     0.7394      Y:     1.4336      Z:    -1.7871     Total:     2.4074

    SAPT Results
  --------------------------------------------------------------------------------------------------------
    Electrostatics                 -0.02525385 [mEh]      -0.01584703 [kcal/mol]      -0.06630397 [kJ/mol]
      Elst10,r                     -0.02525385 [mEh]      -0.01584703 [kcal/mol]      -0.06630397 [kJ/mol]

    Exchange                        0.00000031 [mEh]       0.00000019 [kcal/mol]       0.00000081 [kJ/mol]
      Exch10                        0.00000031 [mEh]       0.00000019 [kcal/mol]       0.00000081 [kJ/mol]
      Exch10(S^2)                   0.00000031 [mEh]       0.00000019 [kcal/mol]       0.00000081 [kJ/mol]

    Induction                      -0.00026684 [mEh]      -0.00016744 [kcal/mol]      -0.00070058 [kJ/mol]
      Ind20,r                      -0.00033774 [mEh]      -0.00021194 [kcal/mol]      -0.00088674 [kJ/mol]
      Exch-Ind20,r                  0.00000044 [mEh]       0.00000028 [kcal/mol]       0.00000117 [kJ/mol]
      delta HF,r (2)                0.00007046 [mEh]       0.00004421 [kcal/mol]       0.00018499 [kJ/mol]

    Dispersion                     -0.00382031 [mEh]      -0.00239728 [kcal/mol]      -0.01003022 [kJ/mol]
      Disp20                       -0.00382033 [mEh]      -0.00239729 [kcal/mol]      -0.01003026 [kJ/mol]
      Exch-Disp20                   0.00000002 [mEh]       0.00000001 [kcal/mol]       0.00000005 [kJ/mol]
      Disp20 (SS)                  -0.00191016 [mEh]      -0.00119865 [kcal/mol]      -0.00501513 [kJ/mol]
      Disp20 (OS)                  -0.00191016 [mEh]      -0.00119865 [kcal/mol]      -0.00501513 [kJ/mol]
      Exch-Disp20 (SS)              0.00000001 [mEh]       0.00000001 [kcal/mol]       0.00000004 [kJ/mol]
      Exch-Disp20 (OS)              0.00000000 [mEh]       0.00000000 [kcal/mol]       0.00000001 [kJ/mol]

  Total HF                         -0.02552038 [mEh]      -0.01601428 [kcal/mol]      -0.06700374 [kJ/mol]
  Total SAPT0                      -0.02934068 [mEh]      -0.01841156 [kcal/mol]      -0.07703396 [kJ/mol]

  Special recipe for scaled SAPT0 (see Manual):
    Electrostatics sSAPT0          -0.02525385 [mEh]      -0.01584703 [kcal/mol]      -0.06630397 [kJ/mol]
    Exchange sSAPT0                 0.00000031 [mEh]       0.00000019 [kcal/mol]       0.00000081 [kJ/mol]
    Induction sSAPT0               -0.00026684 [mEh]      -0.00016744 [kcal/mol]      -0.00070058 [kJ/mol]
    Dispersion sSAPT0              -0.00382031 [mEh]      -0.00239728 [kcal/mol]      -0.01003022 [kJ/mol]
  Total sSAPT0                     -0.02934068 [mEh]      -0.01841156 [kcal/mol]      -0.07703396 [kJ/mol]
  --------------------------------------------------------------------------------------------------------

*** Psi4 exiting successfully. Buy a developer a beer!
