                               Psi4 1.4rc3

  ==> Input File <==

--------------------------------------------------------------------------
# PSI4 file produced by CrystaLattE

# Generated from:               pyrazole.xyz
# Psithon input for N-mer:      2mer-0+291
# Number of atoms per monomer:  [9, 9]
# Number of replicas:           1
# COM priority:                 1.659236652615e-05
# Minimum COM separations:      20.747
# Separation priority:          3.101834446063e-05
# Minimum monomer separations:  16.842
# Cutoff priority:              9.745964371275e-07
# Nuclear repulsion energy:     366.4135481801528

memory 7 GB

molecule Dimer_0_291 {
  N            6.27981210      -4.25303372       0.19313865
  N            6.06870777      -2.28125697       1.80544317
  H            3.66871156      -5.64628941      -1.96684001
  H            0.69034521      -2.37545694      -0.42864236
  H            3.35917442       0.17650601       3.09265017
  H            7.35266782      -1.99461311       2.90680702
  C            3.77952586      -1.21508453       1.76858172
  C            2.38242998      -2.55505538       0.04607681
  C            4.01771468      -4.38410490      -0.88761863
--
  N          -35.89400406      -9.49302627      -1.54178140
  N          -35.77514180      -7.45511923      -0.00460768
  H          -33.22084133     -11.89393623      -2.25981175
  H          -30.32620477      -9.45139749       0.49532575
  H          -33.26262884      -5.73834848       2.39996206
  H          -37.23755002      -6.64514217       0.38115765
  C          -33.49230540      -7.12494356       1.02444117
  C          -32.00931296      -9.05461578       0.13451870
  C          -33.57061830     -10.43978359      -1.45717925
units = au
no_com
no_reorient
}

set {
  e_convergence 10
  d_convergence 10
  scf_type df
  mp2_type df
  cc_type df
  freeze_core true
}

energy('sapt0/aug-cc-pvdz')

--------------------------------------------------------------------------

  //              Dimer HF             //
    Molecular point group: c1
  Charge       = 0
  Multiplicity = 1
  Basis Set: AUG-CC-PVDZ
    Blend: AUG-CC-PVDZ
  Basis Set: (AUG-CC-PVDZ AUX)
    Blend: AUG-CC-PVDZ-JKFIT
  @DF-RHF Final Energy:  -449.52476395925885
    Total Energy =                       -449.5247639592588484
  //            Monomer A HF           //
    Molecular point group: c1
  Multiplicity = 1
  Basis Set: AUG-CC-PVDZ
    Blend: AUG-CC-PVDZ
  Basis Set: (AUG-CC-PVDZ AUX)
    Blend: AUG-CC-PVDZ-JKFIT
  @DF-RHF Final Energy:  -224.76233952021082
    Total Energy =                       -224.7623395202108156
  //            Monomer B HF           //
    Molecular point group: c1

    Geometry (in Bohr), charge = 0, multiplicity = 1:

       Center              X                  Y                   Z               Mass
    ------------   -----------------  -----------------  -----------------  -----------------
      Gh(N)           6.279812100000    -4.253033720000     0.193138650000    14.003074004430
      Gh(N)           6.068707770000    -2.281256970000     1.805443170000    14.003074004430
      Gh(H)           3.668711560000    -5.646289410000    -1.966840010000     1.007825032230
      Gh(H)           0.690345210000    -2.375456940000    -0.428642360000     1.007825032230
      Gh(H)           3.359174420000     0.176506010000     3.092650170000     1.007825032230
      Gh(H)           7.352667820000    -1.994613110000     2.906807020000     1.007825032230
      Gh(C)           3.779525860000    -1.215084530000     1.768581720000    12.000000000000
      Gh(C)           2.382429980000    -2.555055380000     0.046076810000    12.000000000000
      Gh(C)           4.017714680000    -4.384104900000    -0.887618630000    12.000000000000
         N          -35.894004060000    -9.493026270000    -1.541781400000    14.003074004430
         N          -35.775141800000    -7.455119230000    -0.004607680000    14.003074004430
         H          -33.220841330000   -11.893936230000    -2.259811750000     1.007825032230
         H          -30.326204770000    -9.451397490000     0.495325750000     1.007825032230
         H          -33.262628840000    -5.738348480000     2.399962060000     1.007825032230
         H          -37.237550020000    -6.645142170000     0.381157650000     1.007825032230
         C          -33.492305400000    -7.124943560000     1.024441170000    12.000000000000
         C          -32.009312960000    -9.054615780000     0.134518700000    12.000000000000
         C          -33.570618300000   -10.439783590000    -1.457179250000    12.000000000000

  Charge       = 0
  Multiplicity = 1
  Basis Set: AUG-CC-PVDZ
    Blend: AUG-CC-PVDZ
  Basis Set: (AUG-CC-PVDZ AUX)
    Blend: AUG-CC-PVDZ-JKFIT

    Orbital Energies [Eh]
    ---------------------

    Doubly Occupied:

       1A    -15.636233     2A    -15.592291     3A    -11.279903
       4A    -11.237759     5A    -11.209884     6A     -1.387001
       7A     -1.121894     8A     -1.066928     9A     -0.872759
      10A     -0.837039    11A     -0.757272    12A     -0.645745
      13A     -0.620828    14A     -0.609177    15A     -0.583905
      16A     -0.461413    17A     -0.370715    18A     -0.346055

  @DF-RHF Final Energy:  -224.76243506125226

   => Energetics <=

    Nuclear Repulsion Energy =            166.6286027774856109
    One-Electron Energy =                -633.5084733410908484
    Two-Electron Energy =                 242.1174355023529472
    Total Energy =                       -224.7624350612522619

  Dipole Moment: [D]
     X:     0.7394      Y:     1.4336      Z:     1.7871     Total:     2.4074

    SAPT Results
  --------------------------------------------------------------------------------------------------------
    Electrostatics                  0.01055300 [mEh]       0.00662211 [kcal/mol]       0.02770691 [kJ/mol]
      Elst10,r                      0.01055300 [mEh]       0.00662211 [kcal/mol]       0.02770691 [kJ/mol]

    Exchange                        0.00000000 [mEh]       0.00000000 [kcal/mol]       0.00000000 [kJ/mol]
      Exch10                        0.00000000 [mEh]       0.00000000 [kcal/mol]       0.00000000 [kJ/mol]
      Exch10(S^2)                   0.00000000 [mEh]       0.00000000 [kcal/mol]       0.00000000 [kJ/mol]

    Induction                       0.00006920 [mEh]       0.00004342 [kcal/mol]       0.00018168 [kJ/mol]
      Ind20,r                      -0.00001226 [mEh]      -0.00000769 [kcal/mol]      -0.00003218 [kJ/mol]
      Exch-Ind20,r                  0.00000000 [mEh]       0.00000000 [kcal/mol]       0.00000000 [kJ/mol]
      delta HF,r (2)                0.00008146 [mEh]       0.00005111 [kcal/mol]       0.00021386 [kJ/mol]

    Dispersion                     -0.00036344 [mEh]      -0.00022806 [kcal/mol]      -0.00095422 [kJ/mol]
      Disp20                       -0.00036344 [mEh]      -0.00022806 [kcal/mol]      -0.00095422 [kJ/mol]
      Exch-Disp20                   0.00000000 [mEh]       0.00000000 [kcal/mol]       0.00000000 [kJ/mol]
      Disp20 (SS)                  -0.00018172 [mEh]      -0.00011403 [kcal/mol]      -0.00047711 [kJ/mol]
      Disp20 (OS)                  -0.00018172 [mEh]      -0.00011403 [kcal/mol]      -0.00047711 [kJ/mol]
      Exch-Disp20 (SS)              0.00000000 [mEh]       0.00000000 [kcal/mol]       0.00000000 [kJ/mol]
      Exch-Disp20 (OS)              0.00000000 [mEh]       0.00000000 [kcal/mol]       0.00000000 [kJ/mol]

  Total HF                          0.01062220 [mEh]       0.00666553 [kcal/mol]       0.02788859 [kJ/mol]
  Total SAPT0                       0.01025876 [mEh]       0.00643747 [kcal/mol]       0.02693437 [kJ/mol]

  Special recipe for scaled SAPT0 (see Manual):
    Electrostatics sSAPT0           0.01055300 [mEh]       0.00662211 [kcal/mol]       0.02770691 [kJ/mol]
    Exchange sSAPT0                 0.00000000 [mEh]       0.00000000 [kcal/mol]       0.00000000 [kJ/mol]
    Induction sSAPT0                0.00006920 [mEh]       0.00004342 [kcal/mol]       0.00018168 [kJ/mol]
    Dispersion sSAPT0              -0.00036344 [mEh]      -0.00022806 [kcal/mol]      -0.00095422 [kJ/mol]
  Total sSAPT0                      0.01025876 [mEh]       0.00643747 [kcal/mol]       0.02693437 [kJ/mol]
  --------------------------------------------------------------------------------------------------------

*** Psi4 exiting successfully. Buy a developer a beer!
