                               Psi4 1.4rc3

  ==> Input File <==

--------------------------------------------------------------------------
# PSI4 file produced by CrystaLattE

# Generated from:               pyrazole.xyz
# Psithon input for N-mer:      2mer-0+470
# Number of atoms per monomer:  [9, 9]
# Number of replicas:           2
# COM priority:                 1.291978806713e-05
# Minimum COM separations:      22.552
# Separation priority:          1.936680594017e-05
# Minimum monomer separations:  19.705
# Cutoff priority:              5.200886000380e-07
# Nuclear repulsion energy:     363.6699625933237

memory 7 GB

molecule Dimer_0_470 {
  N            6.27981210      -4.25303372       0.19313865
  N            6.06870777      -2.28125697       1.80544317
  H            3.66871156      -5.64628941      -1.96684001
  H            0.69034521      -2.37545694      -0.42864236
  H            3.35917442       0.17650601       3.09265017
  H            7.35266782      -1.99461311       2.90680702
  C            3.77952586      -1.21508453       1.76858172
  C            2.38242998      -2.55505538       0.04607681
  C            4.01771468      -4.38410490      -0.88761863
--
  N          -32.41233032     -19.42731757      -0.14706183
  N          -32.62343465     -21.39909431      -1.75936635
  H          -35.02343086     -18.03406187       2.01291682
  H          -38.00179721     -21.30489434       0.47471918
  H          -35.33296800     -23.85685730      -3.04657335
  H          -31.33947459     -21.68573818      -2.86073020
  C          -34.91261656     -22.46526676      -1.72250490
  C          -36.30971244     -21.12529590       0.00000000
  C          -34.67442773     -19.29624639       0.93369544
units = au
no_com
no_reorient
}

set {
  e_convergence 10
  d_convergence 10
  scf_type df
  mp2_type df
  cc_type df
  freeze_core true
}

energy('sapt0/aug-cc-pvdz')

--------------------------------------------------------------------------

  //              Dimer HF             //
    Molecular point group: c1
  Charge       = 0
  Multiplicity = 1
  Basis Set: AUG-CC-PVDZ
    Blend: AUG-CC-PVDZ
  Basis Set: (AUG-CC-PVDZ AUX)
    Blend: AUG-CC-PVDZ-JKFIT
  @DF-RHF Final Energy:  -449.52468861185628
    Total Energy =                       -449.5246886118562770
  //            Monomer A HF           //
    Molecular point group: c1
  Multiplicity = 1
  Basis Set: AUG-CC-PVDZ
    Blend: AUG-CC-PVDZ
  Basis Set: (AUG-CC-PVDZ AUX)
    Blend: AUG-CC-PVDZ-JKFIT
  @DF-RHF Final Energy:  -224.76233952000473
    Total Energy =                       -224.7623395200047298
  //            Monomer B HF           //
    Molecular point group: c1

    Geometry (in Bohr), charge = 0, multiplicity = 1:

       Center              X                  Y                   Z               Mass
    ------------   -----------------  -----------------  -----------------  -----------------
      Gh(N)           6.279812100000    -4.253033720000     0.193138650000    14.003074004430
      Gh(N)           6.068707770000    -2.281256970000     1.805443170000    14.003074004430
      Gh(H)           3.668711560000    -5.646289410000    -1.966840010000     1.007825032230
      Gh(H)           0.690345210000    -2.375456940000    -0.428642360000     1.007825032230
      Gh(H)           3.359174420000     0.176506010000     3.092650170000     1.007825032230
      Gh(H)           7.352667820000    -1.994613110000     2.906807020000     1.007825032230
      Gh(C)           3.779525860000    -1.215084530000     1.768581720000    12.000000000000
      Gh(C)           2.382429980000    -2.555055380000     0.046076810000    12.000000000000
      Gh(C)           4.017714680000    -4.384104900000    -0.887618630000    12.000000000000
         N          -32.412330320000   -19.427317570000    -0.147061830000    14.003074004430
         N          -32.623434650000   -21.399094310000    -1.759366350000    14.003074004430
         H          -35.023430860000   -18.034061870000     2.012916820000     1.007825032230
         H          -38.001797210000   -21.304894340000     0.474719180000     1.007825032230
         H          -35.332968000000   -23.856857300000    -3.046573350000     1.007825032230
         H          -31.339474590000   -21.685738180000    -2.860730200000     1.007825032230
         C          -34.912616560000   -22.465266760000    -1.722504900000    12.000000000000
         C          -36.309712440000   -21.125295900000     0.000000000000    12.000000000000
         C          -34.674427730000   -19.296246390000     0.933695440000    12.000000000000

  Charge       = 0
  Multiplicity = 1
  Basis Set: AUG-CC-PVDZ
    Blend: AUG-CC-PVDZ
  Basis Set: (AUG-CC-PVDZ AUX)
    Blend: AUG-CC-PVDZ-JKFIT

    Orbital Energies [Eh]
    ---------------------

    Doubly Occupied:

       1A    -15.636223     2A    -15.592313     3A    -11.279894
       4A    -11.237784     5A    -11.209891     6A     -1.386922
       7A     -1.121901     8A     -1.066898     9A     -0.872768
      10A     -0.837061    11A     -0.757292    12A     -0.645746
      13A     -0.620834    14A     -0.609140    15A     -0.583920
      16A     -0.461404    17A     -0.370721    18A     -0.346048

  @DF-RHF Final Energy:  -224.76233952571732

   => Energetics <=

    Nuclear Repulsion Energy =            166.6240566063843573
    One-Electron Energy =                -633.4992737112255554
    Two-Electron Energy =                 242.1128775791239036
    Total Energy =                       -224.7623395257173229

  Dipole Moment: [D]
     X:    -1.0235      Y:    -1.6055      Z:    -1.4733     Total:     2.4075

    SAPT Results
  --------------------------------------------------------------------------------------------------------
    Electrostatics                 -0.00960945 [mEh]      -0.00603002 [kcal/mol]      -0.02522961 [kJ/mol]
      Elst10,r                     -0.00960945 [mEh]      -0.00603002 [kcal/mol]      -0.02522961 [kJ/mol]

    Exchange                        0.00000000 [mEh]       0.00000000 [kcal/mol]       0.00000000 [kJ/mol]
      Exch10                        0.00000000 [mEh]       0.00000000 [kcal/mol]       0.00000000 [kJ/mol]
      Exch10(S^2)                   0.00000000 [mEh]       0.00000000 [kcal/mol]       0.00000000 [kJ/mol]

    Induction                       0.00004332 [mEh]       0.00002718 [kcal/mol]       0.00011372 [kJ/mol]
      Ind20,r                      -0.00001371 [mEh]      -0.00000861 [kcal/mol]      -0.00003601 [kJ/mol]
      Exch-Ind20,r                  0.00000000 [mEh]       0.00000000 [kcal/mol]       0.00000000 [kJ/mol]
      delta HF,r (2)                0.00005703 [mEh]       0.00003579 [kcal/mol]       0.00014973 [kJ/mol]

    Dispersion                     -0.00020701 [mEh]      -0.00012990 [kcal/mol]      -0.00054351 [kJ/mol]
      Disp20                       -0.00020701 [mEh]      -0.00012990 [kcal/mol]      -0.00054351 [kJ/mol]
      Exch-Disp20                   0.00000000 [mEh]       0.00000000 [kcal/mol]       0.00000000 [kJ/mol]
      Disp20 (SS)                  -0.00010351 [mEh]      -0.00006495 [kcal/mol]      -0.00027175 [kJ/mol]
      Disp20 (OS)                  -0.00010351 [mEh]      -0.00006495 [kcal/mol]      -0.00027175 [kJ/mol]
      Exch-Disp20 (SS)              0.00000000 [mEh]       0.00000000 [kcal/mol]       0.00000000 [kJ/mol]
      Exch-Disp20 (OS)              0.00000000 [mEh]       0.00000000 [kcal/mol]       0.00000000 [kJ/mol]

  Total HF                         -0.00956613 [mEh]      -0.00600284 [kcal/mol]      -0.02511588 [kJ/mol]
  Total SAPT0                      -0.00977315 [mEh]      -0.00613274 [kcal/mol]      -0.02565939 [kJ/mol]

  Special recipe for scaled SAPT0 (see Manual):
    Electrostatics sSAPT0          -0.00960945 [mEh]      -0.00603002 [kcal/mol]      -0.02522961 [kJ/mol]
    Exchange sSAPT0                 0.00000000 [mEh]       0.00000000 [kcal/mol]       0.00000000 [kJ/mol]
    Induction sSAPT0                0.00004332 [mEh]       0.00002718 [kcal/mol]       0.00011372 [kJ/mol]
    Dispersion sSAPT0              -0.00020701 [mEh]      -0.00012990 [kcal/mol]      -0.00054351 [kJ/mol]
  Total sSAPT0                     -0.00977315 [mEh]      -0.00613274 [kcal/mol]      -0.02565939 [kJ/mol]
  --------------------------------------------------------------------------------------------------------

*** Psi4 exiting successfully. Buy a developer a beer!
