                               Psi4 1.4rc3

  ==> Input File <==

--------------------------------------------------------------------------
# PSI4 file produced by CrystaLattE

# Generated from:               pyrazole.xyz
# Psithon input for N-mer:      2mer-0+152
# Number of atoms per monomer:  [9, 9]
# Number of replicas:           1
# COM priority:                 5.519386862601e-05
# Minimum COM separations:      13.899
# Separation priority:          1.225781384743e-04
# Minimum monomer separations:  10.653
# Cutoff priority:              6.089066198110e-06
# Nuclear repulsion energy:     382.5992161573024

memory 7 GB

molecule Dimer_0_152 {
  N            6.27981210      -4.25303372       0.19313865
  N            6.06870777      -2.28125697       1.80544317
  H            3.66871156      -5.64628941      -1.96684001
  H            0.69034521      -2.37545694      -0.42864236
  H            3.35917442       0.17650601       3.09265017
  H            7.35266782      -1.99461311       2.90680702
  C            3.77952586      -1.21508453       1.76858172
  C            2.38242998      -2.55505538       0.04607681
  C            4.01771468      -4.38410490      -0.88761863
--
  N           -4.94029013     -26.08126125      -7.94133892
  N           -4.82142787     -28.11916829      -6.40416521
  H           -2.26712739     -23.68035128      -8.65936928
  H            0.62750917     -26.12289003      -5.90423177
  H           -2.30891491     -29.83593904      -3.99959546
  H           -6.28383608     -28.92914534      -6.01839988
  C           -2.53859146     -28.44934396      -5.37511636
  C           -1.05559903     -26.51967174      -6.26503882
  C           -2.61690436     -25.13450393      -7.85673677
units = au
no_com
no_reorient
}

set {
  e_convergence 10
  d_convergence 10
  scf_type df
  mp2_type df
  cc_type df
  freeze_core true
}

energy('sapt0/aug-cc-pvdz')

--------------------------------------------------------------------------

  //              Dimer HF             //
    Molecular point group: c1
  Charge       = 0
  Multiplicity = 1
  Basis Set: AUG-CC-PVDZ
    Blend: AUG-CC-PVDZ
  Basis Set: (AUG-CC-PVDZ AUX)
    Blend: AUG-CC-PVDZ-JKFIT
  @DF-RHF Final Energy:  -449.52479215240635
    Total Energy =                       -449.5247921524063486
  //            Monomer A HF           //
    Molecular point group: c1
  Multiplicity = 1
  Basis Set: AUG-CC-PVDZ
    Blend: AUG-CC-PVDZ
  Basis Set: (AUG-CC-PVDZ AUX)
    Blend: AUG-CC-PVDZ-JKFIT
  @DF-RHF Final Energy:  -224.76233982850806
    Total Energy =                       -224.7623398285080611
  //            Monomer B HF           //
    Molecular point group: c1

    Geometry (in Bohr), charge = 0, multiplicity = 1:

       Center              X                  Y                   Z               Mass
    ------------   -----------------  -----------------  -----------------  -----------------
      Gh(N)           6.279812100000    -4.253033720000     0.193138650000    14.003074004430
      Gh(N)           6.068707770000    -2.281256970000     1.805443170000    14.003074004430
      Gh(H)           3.668711560000    -5.646289410000    -1.966840010000     1.007825032230
      Gh(H)           0.690345210000    -2.375456940000    -0.428642360000     1.007825032230
      Gh(H)           3.359174420000     0.176506010000     3.092650170000     1.007825032230
      Gh(H)           7.352667820000    -1.994613110000     2.906807020000     1.007825032230
      Gh(C)           3.779525860000    -1.215084530000     1.768581720000    12.000000000000
      Gh(C)           2.382429980000    -2.555055380000     0.046076810000    12.000000000000
      Gh(C)           4.017714680000    -4.384104900000    -0.887618630000    12.000000000000
         N           -4.940290130000   -26.081261250000    -7.941338920000    14.003074004430
         N           -4.821427870000   -28.119168290000    -6.404165210000    14.003074004430
         H           -2.267127390000   -23.680351280000    -8.659369280000     1.007825032230
         H            0.627509170000   -26.122890030000    -5.904231770000     1.007825032230
         H           -2.308914910000   -29.835939040000    -3.999595460000     1.007825032230
         H           -6.283836080000   -28.929145340000    -6.018399880000     1.007825032230
         C           -2.538591460000   -28.449343960000    -5.375116360000    12.000000000000
         C           -1.055599030000   -26.519671740000    -6.265038820000    12.000000000000
         C           -2.616904360000   -25.134503930000    -7.856736770000    12.000000000000

  Charge       = 0
  Multiplicity = 1
  Basis Set: AUG-CC-PVDZ
    Blend: AUG-CC-PVDZ
  Basis Set: (AUG-CC-PVDZ AUX)
    Blend: AUG-CC-PVDZ-JKFIT

    Orbital Energies [Eh]
    ---------------------

    Doubly Occupied:

       1A    -15.636233     2A    -15.592291     3A    -11.279903
       4A    -11.237758     5A    -11.209884     6A     -1.387001
       7A     -1.121894     8A     -1.066928     9A     -0.872759
      10A     -0.837039    11A     -0.757272    12A     -0.645745
      13A     -0.620828    14A     -0.609177    15A     -0.583905
      16A     -0.461413    17A     -0.370715    18A     -0.346055

  @DF-RHF Final Energy:  -224.76243541544466

   => Energetics <=

    Nuclear Repulsion Energy =            166.6286027555273961
    One-Electron Energy =                -633.5084757518133074
    Two-Electron Energy =                 242.1174375808412833
    Total Energy =                       -224.7624354154446564

  Dipole Moment: [D]
     X:     0.7394      Y:    -1.4336      Z:     1.7871     Total:     2.4074

    SAPT Results
  --------------------------------------------------------------------------------------------------------
    Electrostatics                 -0.01687818 [mEh]      -0.01059122 [kcal/mol]      -0.04431366 [kJ/mol]
      Elst10,r                     -0.01687818 [mEh]      -0.01059122 [kcal/mol]      -0.04431366 [kJ/mol]

    Exchange                        0.00000096 [mEh]       0.00000060 [kcal/mol]       0.00000253 [kJ/mol]
      Exch10                        0.00000096 [mEh]       0.00000060 [kcal/mol]       0.00000253 [kJ/mol]
      Exch10(S^2)                   0.00000096 [mEh]       0.00000060 [kcal/mol]       0.00000253 [kJ/mol]

    Induction                      -0.00003123 [mEh]      -0.00001960 [kcal/mol]      -0.00008201 [kJ/mol]
      Ind20,r                      -0.00014572 [mEh]      -0.00009144 [kcal/mol]      -0.00038259 [kJ/mol]
      Exch-Ind20,r                  0.00000133 [mEh]       0.00000084 [kcal/mol]       0.00000349 [kJ/mol]
      delta HF,r (2)                0.00011316 [mEh]       0.00007101 [kcal/mol]       0.00029709 [kJ/mol]

    Dispersion                     -0.00393086 [mEh]      -0.00246665 [kcal/mol]      -0.01032048 [kJ/mol]
      Disp20                       -0.00393091 [mEh]      -0.00246669 [kcal/mol]      -0.01032061 [kJ/mol]
      Exch-Disp20                   0.00000005 [mEh]       0.00000003 [kcal/mol]       0.00000013 [kJ/mol]
      Disp20 (SS)                  -0.00196546 [mEh]      -0.00123334 [kcal/mol]      -0.00516031 [kJ/mol]
      Disp20 (OS)                  -0.00196546 [mEh]      -0.00123334 [kcal/mol]      -0.00516031 [kJ/mol]
      Exch-Disp20 (SS)              0.00000004 [mEh]       0.00000002 [kcal/mol]       0.00000010 [kJ/mol]
      Exch-Disp20 (OS)              0.00000001 [mEh]       0.00000001 [kcal/mol]       0.00000003 [kJ/mol]

  Total HF                         -0.01690845 [mEh]      -0.01061021 [kcal/mol]      -0.04439314 [kJ/mol]
  Total SAPT0                      -0.02083932 [mEh]      -0.01307687 [kcal/mol]      -0.05471362 [kJ/mol]

  Special recipe for scaled SAPT0 (see Manual):
    Electrostatics sSAPT0          -0.01687818 [mEh]      -0.01059122 [kcal/mol]      -0.04431366 [kJ/mol]
    Exchange sSAPT0                 0.00000096 [mEh]       0.00000060 [kcal/mol]       0.00000253 [kJ/mol]
    Induction sSAPT0               -0.00003123 [mEh]      -0.00001960 [kcal/mol]      -0.00008201 [kJ/mol]
    Dispersion sSAPT0              -0.00393086 [mEh]      -0.00246665 [kcal/mol]      -0.01032048 [kJ/mol]
  Total sSAPT0                     -0.02083932 [mEh]      -0.01307687 [kcal/mol]      -0.05471362 [kJ/mol]
  --------------------------------------------------------------------------------------------------------

*** Psi4 exiting successfully. Buy a developer a beer!
