                               Psi4 1.4rc3

  ==> Input File <==

--------------------------------------------------------------------------
# PSI4 file produced by CrystaLattE

# Generated from:               pyrazole.xyz
# Psithon input for N-mer:      2mer-0+137
# Number of atoms per monomer:  [9, 9]
# Number of replicas:           2
# COM priority:                 3.314140653730e-05
# Minimum COM separations:      16.474
# Separation priority:          6.593791664787e-05
# Minimum monomer separations:  13.099
# Cutoff priority:              2.663873688479e-06
# Nuclear repulsion energy:     374.9997321070233

memory 7 GB

molecule Dimer_0_137 {
  N            6.27981210      -4.25303372       0.19313865
  N            6.06870777      -2.28125697       1.80544317
  H            3.66871156      -5.64628941      -1.96684001
  H            0.69034521      -2.37545694      -0.42864236
  H            3.35917442       0.17650601       3.09265017
  H            7.35266782      -1.99461311       2.90680702
  C            3.77952586      -1.21508453       1.76858172
  C            2.38242998      -2.55505538       0.04607681
  C            4.01771468      -4.38410490      -0.88761863
--
  N           -9.19704487      19.53483875      12.99225369
  N           -9.40814920      21.50661550      14.60455822
  H          -11.80814541      18.14158306      10.83227504
  H          -14.78651176      21.41241552      12.37047268
  H          -12.11768255      23.96437848      15.89176522
  H           -8.12418914      21.79325936      15.70592207
  C          -11.69733111      22.57278794      14.56769677
  C          -13.09442699      21.23281709      12.84519186
  C          -11.45914228      19.40376757      11.91149642
units = au
no_com
no_reorient
}

set {
  e_convergence 10
  d_convergence 10
  scf_type df
  mp2_type df
  cc_type df
  freeze_core true
}

energy('sapt0/aug-cc-pvdz')

--------------------------------------------------------------------------

  //              Dimer HF             //
    Molecular point group: c1
  Charge       = 0
  Multiplicity = 1
  Basis Set: AUG-CC-PVDZ
    Blend: AUG-CC-PVDZ
  Basis Set: (AUG-CC-PVDZ AUX)
    Blend: AUG-CC-PVDZ-JKFIT
  @DF-RHF Final Energy:  -449.52473899880999
    Total Energy =                       -449.5247389988099940
  //            Monomer A HF           //
    Molecular point group: c1
  Multiplicity = 1
  Basis Set: AUG-CC-PVDZ
    Blend: AUG-CC-PVDZ
  Basis Set: (AUG-CC-PVDZ AUX)
    Blend: AUG-CC-PVDZ-JKFIT
  @DF-RHF Final Energy:  -224.76233952257172
    Total Energy =                       -224.7623395225717218
  //            Monomer B HF           //
    Molecular point group: c1

    Geometry (in Bohr), charge = 0, multiplicity = 1:

       Center              X                  Y                   Z               Mass
    ------------   -----------------  -----------------  -----------------  -----------------
      Gh(N)           6.279812100000    -4.253033720000     0.193138650000    14.003074004430
      Gh(N)           6.068707770000    -2.281256970000     1.805443170000    14.003074004430
      Gh(H)           3.668711560000    -5.646289410000    -1.966840010000     1.007825032230
      Gh(H)           0.690345210000    -2.375456940000    -0.428642360000     1.007825032230
      Gh(H)           3.359174420000     0.176506010000     3.092650170000     1.007825032230
      Gh(H)           7.352667820000    -1.994613110000     2.906807020000     1.007825032230
      Gh(C)           3.779525860000    -1.215084530000     1.768581720000    12.000000000000
      Gh(C)           2.382429980000    -2.555055380000     0.046076810000    12.000000000000
      Gh(C)           4.017714680000    -4.384104900000    -0.887618630000    12.000000000000
         N           -9.197044870000    19.534838750000    12.992253690000    14.003074004430
         N           -9.408149200000    21.506615500000    14.604558220000    14.003074004430
         H          -11.808145410000    18.141583060000    10.832275040000     1.007825032230
         H          -14.786511760000    21.412415520000    12.370472680000     1.007825032230
         H          -12.117682550000    23.964378480000    15.891765220000     1.007825032230
         H           -8.124189140000    21.793259360000    15.705922070000     1.007825032230
         C          -11.697331110000    22.572787940000    14.567696770000    12.000000000000
         C          -13.094426990000    21.232817090000    12.845191860000    12.000000000000
         C          -11.459142280000    19.403767570000    11.911496420000    12.000000000000

  Charge       = 0
  Multiplicity = 1
  Basis Set: AUG-CC-PVDZ
    Blend: AUG-CC-PVDZ
  Basis Set: (AUG-CC-PVDZ AUX)
    Blend: AUG-CC-PVDZ-JKFIT

    Orbital Energies [Eh]
    ---------------------

    Doubly Occupied:

       1A    -15.636223     2A    -15.592313     3A    -11.279894
       4A    -11.237784     5A    -11.209891     6A     -1.386922
       7A     -1.121901     8A     -1.066898     9A     -0.872768
      10A     -0.837061    11A     -0.757292    12A     -0.645746
      13A     -0.620834    14A     -0.609140    15A     -0.583920
      16A     -0.461404    17A     -0.370721    18A     -0.346048

  @DF-RHF Final Energy:  -224.76233952717493

   => Energetics <=

    Nuclear Repulsion Energy =            166.6240564247024736
    One-Electron Energy =                -633.4992733946753560
    Two-Electron Energy =                 242.1128774427979522
    Total Energy =                       -224.7623395271749303

  Dipole Moment: [D]
     X:    -1.0235      Y:     1.6055      Z:     1.4733     Total:     2.4075

    SAPT Results
  --------------------------------------------------------------------------------------------------------
    Electrostatics                 -0.05983329 [mEh]      -0.03754596 [kcal/mol]      -0.15709229 [kJ/mol]
      Elst10,r                     -0.05983329 [mEh]      -0.03754596 [kcal/mol]      -0.15709229 [kJ/mol]

    Exchange                        0.00000001 [mEh]       0.00000001 [kcal/mol]       0.00000002 [kJ/mol]
      Exch10                        0.00000001 [mEh]       0.00000001 [kcal/mol]       0.00000002 [kJ/mol]
      Exch10(S^2)                   0.00000001 [mEh]       0.00000001 [kcal/mol]       0.00000002 [kJ/mol]

    Induction                      -0.00011578 [mEh]      -0.00007265 [kcal/mol]      -0.00030398 [kJ/mol]
      Ind20,r                      -0.00021557 [mEh]      -0.00013527 [kcal/mol]      -0.00056599 [kJ/mol]
      Exch-Ind20,r                  0.00000001 [mEh]       0.00000001 [kcal/mol]       0.00000003 [kJ/mol]
      delta HF,r (2)                0.00009978 [mEh]       0.00006261 [kcal/mol]       0.00026198 [kJ/mol]

    Dispersion                     -0.00151550 [mEh]      -0.00095099 [kcal/mol]      -0.00397894 [kJ/mol]
      Disp20                       -0.00151550 [mEh]      -0.00095099 [kcal/mol]      -0.00397894 [kJ/mol]
      Exch-Disp20                   0.00000000 [mEh]       0.00000000 [kcal/mol]       0.00000000 [kJ/mol]
      Disp20 (SS)                  -0.00075775 [mEh]      -0.00047550 [kcal/mol]      -0.00198947 [kJ/mol]
      Disp20 (OS)                  -0.00075775 [mEh]      -0.00047550 [kcal/mol]      -0.00198947 [kJ/mol]
      Exch-Disp20 (SS)              0.00000000 [mEh]       0.00000000 [kcal/mol]       0.00000000 [kJ/mol]
      Exch-Disp20 (OS)              0.00000000 [mEh]       0.00000000 [kcal/mol]       0.00000000 [kJ/mol]

  Total HF                         -0.05994906 [mEh]      -0.03761861 [kcal/mol]      -0.15739624 [kJ/mol]
  Total SAPT0                      -0.06146456 [mEh]      -0.03856960 [kcal/mol]      -0.16137519 [kJ/mol]

  Special recipe for scaled SAPT0 (see Manual):
    Electrostatics sSAPT0          -0.05983329 [mEh]      -0.03754596 [kcal/mol]      -0.15709229 [kJ/mol]
    Exchange sSAPT0                 0.00000001 [mEh]       0.00000001 [kcal/mol]       0.00000002 [kJ/mol]
    Induction sSAPT0               -0.00011578 [mEh]      -0.00007265 [kcal/mol]      -0.00030398 [kJ/mol]
    Dispersion sSAPT0              -0.00151550 [mEh]      -0.00095099 [kcal/mol]      -0.00397894 [kJ/mol]
  Total sSAPT0                     -0.06146456 [mEh]      -0.03856960 [kcal/mol]      -0.16137519 [kJ/mol]
  --------------------------------------------------------------------------------------------------------

*** Psi4 exiting successfully. Buy a developer a beer!
