                               Psi4 1.4rc3

  ==> Input File <==

--------------------------------------------------------------------------
# PSI4 file produced by CrystaLattE

# Generated from:               pyrazole.xyz
# Psithon input for N-mer:      2mer-0+453
# Number of atoms per monomer:  [9, 9]
# Number of replicas:           1
# COM priority:                 1.161529029469e-05
# Minimum COM separations:      23.366
# Separation priority:          2.021126578837e-05
# Minimum monomer separations:  19.427
# Cutoff priority:              5.505431343648e-07
# Nuclear repulsion energy:     362.6492773140786

memory 7 GB

molecule Dimer_0_453 {
  N            6.27981210      -4.25303372       0.19313865
  N            6.06870777      -2.28125697       1.80544317
  H            3.66871156      -5.64628941      -1.96684001
  H            0.69034521      -2.37545694      -0.42864236
  H            3.35917442       0.17650601       3.09265017
  H            7.35266782      -1.99461311       2.90680702
  C            3.77952586      -1.21508453       1.76858172
  C            2.38242998      -2.55505538       0.04607681
  C            4.01771468      -4.38410490      -0.88761863
--
  N           -4.94029013      38.08271867      11.25733365
  N           -4.82142787      40.12062570      12.79450737
  H           -2.26712739      35.68180870      10.53930329
  H            0.62750917      38.12434745      13.29444080
  H           -2.30891491      41.83739646      15.19907711
  H           -6.28383608      40.93060276      13.18027269
  C           -2.53859146      40.45080137      13.82355622
  C           -1.05559903      38.52112916      12.93363375
  C           -2.61690436      37.13596134      11.34193580
units = au
no_com
no_reorient
}

set {
  e_convergence 10
  d_convergence 10
  scf_type df
  mp2_type df
  cc_type df
  freeze_core true
}

energy('sapt0/aug-cc-pvdz')

--------------------------------------------------------------------------

  //              Dimer HF             //
    Molecular point group: c1
  Charge       = 0
  Multiplicity = 1
  Basis Set: AUG-CC-PVDZ
    Blend: AUG-CC-PVDZ
  Basis Set: (AUG-CC-PVDZ AUX)
    Blend: AUG-CC-PVDZ-JKFIT
  @DF-RHF Final Energy:  -449.52478191510636
    Total Energy =                       -449.5247819151063595
  //            Monomer A HF           //
    Molecular point group: c1
  Multiplicity = 1
  Basis Set: AUG-CC-PVDZ
    Blend: AUG-CC-PVDZ
  Basis Set: (AUG-CC-PVDZ AUX)
    Blend: AUG-CC-PVDZ-JKFIT
  @DF-RHF Final Energy:  -224.76233952079556
    Total Energy =                       -224.7623395207955639
  //            Monomer B HF           //
    Molecular point group: c1

    Geometry (in Bohr), charge = 0, multiplicity = 1:

       Center              X                  Y                   Z               Mass
    ------------   -----------------  -----------------  -----------------  -----------------
      Gh(N)           6.279812100000    -4.253033720000     0.193138650000    14.003074004430
      Gh(N)           6.068707770000    -2.281256970000     1.805443170000    14.003074004430
      Gh(H)           3.668711560000    -5.646289410000    -1.966840010000     1.007825032230
      Gh(H)           0.690345210000    -2.375456940000    -0.428642360000     1.007825032230
      Gh(H)           3.359174420000     0.176506010000     3.092650170000     1.007825032230
      Gh(H)           7.352667820000    -1.994613110000     2.906807020000     1.007825032230
      Gh(C)           3.779525860000    -1.215084530000     1.768581720000    12.000000000000
      Gh(C)           2.382429980000    -2.555055380000     0.046076810000    12.000000000000
      Gh(C)           4.017714680000    -4.384104900000    -0.887618630000    12.000000000000
         N           -4.940290130000    38.082718670000    11.257333650000    14.003074004430
         N           -4.821427870000    40.120625700000    12.794507370000    14.003074004430
         H           -2.267127390000    35.681808700000    10.539303290000     1.007825032230
         H            0.627509170000    38.124347450000    13.294440800000     1.007825032230
         H           -2.308914910000    41.837396460000    15.199077110000     1.007825032230
         H           -6.283836080000    40.930602760000    13.180272690000     1.007825032230
         C           -2.538591460000    40.450801370000    13.823556220000    12.000000000000
         C           -1.055599030000    38.521129160000    12.933633750000    12.000000000000
         C           -2.616904360000    37.135961340000    11.341935800000    12.000000000000

  Charge       = 0
  Multiplicity = 1
  Basis Set: AUG-CC-PVDZ
    Blend: AUG-CC-PVDZ
  Basis Set: (AUG-CC-PVDZ AUX)
    Blend: AUG-CC-PVDZ-JKFIT

    Orbital Energies [Eh]
    ---------------------

    Doubly Occupied:

       1A    -15.636233     2A    -15.592291     3A    -11.279903
       4A    -11.237759     5A    -11.209884     6A     -1.387001
       7A     -1.121894     8A     -1.066928     9A     -0.872759
      10A     -0.837039    11A     -0.757272    12A     -0.645745
      13A     -0.620828    14A     -0.609177    15A     -0.583905
      16A     -0.461413    17A     -0.370715    18A     -0.346055

  @DF-RHF Final Energy:  -224.76243506212009

   => Energetics <=

    Nuclear Repulsion Energy =            166.6286027382649024
    One-Electron Energy =                -633.5084732599759718
    Two-Electron Energy =                 242.1174354595909506
    Total Energy =                       -224.7624350621200904

  Dipole Moment: [D]
     X:     0.7394      Y:     1.4336      Z:     1.7871     Total:     2.4074

    SAPT Results
  --------------------------------------------------------------------------------------------------------
    Electrostatics                 -0.00737592 [mEh]      -0.00462846 [kcal/mol]      -0.01936548 [kJ/mol]
      Elst10,r                     -0.00737592 [mEh]      -0.00462846 [kcal/mol]      -0.01936548 [kJ/mol]

    Exchange                        0.00000000 [mEh]       0.00000000 [kcal/mol]       0.00000000 [kJ/mol]
      Exch10                        0.00000000 [mEh]       0.00000000 [kcal/mol]       0.00000000 [kJ/mol]
      Exch10(S^2)                   0.00000000 [mEh]       0.00000000 [kcal/mol]       0.00000000 [kJ/mol]

    Induction                       0.00004373 [mEh]       0.00002744 [kcal/mol]       0.00011482 [kJ/mol]
      Ind20,r                      -0.00001402 [mEh]      -0.00000880 [kcal/mol]      -0.00003680 [kJ/mol]
      Exch-Ind20,r                  0.00000000 [mEh]       0.00000000 [kcal/mol]       0.00000000 [kJ/mol]
      delta HF,r (2)                0.00005775 [mEh]       0.00003624 [kcal/mol]       0.00015162 [kJ/mol]

    Dispersion                     -0.00017387 [mEh]      -0.00010911 [kcal/mol]      -0.00045650 [kJ/mol]
      Disp20                       -0.00017387 [mEh]      -0.00010911 [kcal/mol]      -0.00045650 [kJ/mol]
      Exch-Disp20                   0.00000000 [mEh]       0.00000000 [kcal/mol]       0.00000000 [kJ/mol]
      Disp20 (SS)                  -0.00008694 [mEh]      -0.00005455 [kcal/mol]      -0.00022825 [kJ/mol]
      Disp20 (OS)                  -0.00008694 [mEh]      -0.00005455 [kcal/mol]      -0.00022825 [kJ/mol]
      Exch-Disp20 (SS)              0.00000000 [mEh]       0.00000000 [kcal/mol]       0.00000000 [kJ/mol]
      Exch-Disp20 (OS)              0.00000000 [mEh]       0.00000000 [kcal/mol]       0.00000000 [kJ/mol]

  Total HF                         -0.00733219 [mEh]      -0.00460102 [kcal/mol]      -0.01925066 [kJ/mol]
  Total SAPT0                      -0.00750606 [mEh]      -0.00471013 [kcal/mol]      -0.01970716 [kJ/mol]

  Special recipe for scaled SAPT0 (see Manual):
    Electrostatics sSAPT0          -0.00737592 [mEh]      -0.00462846 [kcal/mol]      -0.01936548 [kJ/mol]
    Exchange sSAPT0                 0.00000000 [mEh]       0.00000000 [kcal/mol]       0.00000000 [kJ/mol]
    Induction sSAPT0                0.00004373 [mEh]       0.00002744 [kcal/mol]       0.00011482 [kJ/mol]
    Dispersion sSAPT0              -0.00017387 [mEh]      -0.00010911 [kcal/mol]      -0.00045650 [kJ/mol]
  Total sSAPT0                     -0.00750606 [mEh]      -0.00471013 [kcal/mol]      -0.01970716 [kJ/mol]
  --------------------------------------------------------------------------------------------------------

*** Psi4 exiting successfully. Buy a developer a beer!
