                               Psi4 1.4rc3

  ==> Input File <==

--------------------------------------------------------------------------
# PSI4 file produced by CrystaLattE

# Generated from:               pyrazole.xyz
# Psithon input for N-mer:      2mer-0+139
# Number of atoms per monomer:  [9, 9]
# Number of replicas:           1
# COM priority:                 2.739714615551e-05
# Minimum COM separations:      17.554
# Separation priority:          5.586367942470e-05
# Minimum monomer separations:  13.843
# Cutoff priority:              2.135531830766e-06
# Nuclear repulsion energy:     372.49500997062466

memory 7 GB

molecule Dimer_0_139 {
  N            6.27981210      -4.25303372       0.19313865
  N            6.06870777      -2.28125697       1.80544317
  H            3.66871156      -5.64628941      -1.96684001
  H            0.69034521      -2.37545694      -0.42864236
  H            3.35917442       0.17650601       3.09265017
  H            7.35266782      -1.99461311       2.90680702
  C            3.77952586      -1.21508453       1.76858172
  C            2.38242998      -2.55505538       0.04607681
  C            4.01771468      -4.38410490      -0.88761863
--
  N          -28.15557558       9.60054745       1.58785821
  N          -28.03671332       7.56264041       0.05068450
  H          -25.48241284      12.00145742       2.30588857
  H          -22.58777629       9.55891867      -0.44924894
  H          -25.52420036       5.84586966      -2.35388525
  H          -29.49912153       6.75266336      -0.33508083
  C          -25.75387692       7.23246474      -0.97836435
  C          -24.27088448       9.16213696      -0.08844188
  C          -25.83218981      10.54730477       1.50325606
units = au
no_com
no_reorient
}

set {
  e_convergence 10
  d_convergence 10
  scf_type df
  mp2_type df
  cc_type df
  freeze_core true
}

energy('sapt0/aug-cc-pvdz')

--------------------------------------------------------------------------

  //              Dimer HF             //
    Molecular point group: c1
  Charge       = 0
  Multiplicity = 1
  Basis Set: AUG-CC-PVDZ
    Blend: AUG-CC-PVDZ
  Basis Set: (AUG-CC-PVDZ AUX)
    Blend: AUG-CC-PVDZ-JKFIT
  @DF-RHF Final Energy:  -449.52477488712930
    Total Energy =                       -449.5247748871292970
  //            Monomer A HF           //
    Molecular point group: c1
  Multiplicity = 1
  Basis Set: AUG-CC-PVDZ
    Blend: AUG-CC-PVDZ
  Basis Set: (AUG-CC-PVDZ AUX)
    Blend: AUG-CC-PVDZ-JKFIT
  @DF-RHF Final Energy:  -224.76233952099639
    Total Energy =                       -224.7623395209963917
  //            Monomer B HF           //
    Molecular point group: c1

    Geometry (in Bohr), charge = 0, multiplicity = 1:

       Center              X                  Y                   Z               Mass
    ------------   -----------------  -----------------  -----------------  -----------------
      Gh(N)           6.279812100000    -4.253033720000     0.193138650000    14.003074004430
      Gh(N)           6.068707770000    -2.281256970000     1.805443170000    14.003074004430
      Gh(H)           3.668711560000    -5.646289410000    -1.966840010000     1.007825032230
      Gh(H)           0.690345210000    -2.375456940000    -0.428642360000     1.007825032230
      Gh(H)           3.359174420000     0.176506010000     3.092650170000     1.007825032230
      Gh(H)           7.352667820000    -1.994613110000     2.906807020000     1.007825032230
      Gh(C)           3.779525860000    -1.215084530000     1.768581720000    12.000000000000
      Gh(C)           2.382429980000    -2.555055380000     0.046076810000    12.000000000000
      Gh(C)           4.017714680000    -4.384104900000    -0.887618630000    12.000000000000
         N          -28.155575580000     9.600547450000     1.587858210000    14.003074004430
         N          -28.036713320000     7.562640410000     0.050684500000    14.003074004430
         H          -25.482412840000    12.001457420000     2.305888570000     1.007825032230
         H          -22.587776290000     9.558918670000    -0.449248940000     1.007825032230
         H          -25.524200360000     5.845869660000    -2.353885250000     1.007825032230
         H          -29.499121530000     6.752663360000    -0.335080830000     1.007825032230
         C          -25.753876920000     7.232464740000    -0.978364350000    12.000000000000
         C          -24.270884480000     9.162136960000    -0.088441880000    12.000000000000
         C          -25.832189810000    10.547304770000     1.503256060000    12.000000000000

  Charge       = 0
  Multiplicity = 1
  Basis Set: AUG-CC-PVDZ
    Blend: AUG-CC-PVDZ
  Basis Set: (AUG-CC-PVDZ AUX)
    Blend: AUG-CC-PVDZ-JKFIT

    Orbital Energies [Eh]
    ---------------------

    Doubly Occupied:

       1A    -15.636233     2A    -15.592291     3A    -11.279903
       4A    -11.237759     5A    -11.209884     6A     -1.387001
       7A     -1.121894     8A     -1.066928     9A     -0.872759
      10A     -0.837039    11A     -0.757272    12A     -0.645745
      13A     -0.620828    14A     -0.609177    15A     -0.583905
      16A     -0.461413    17A     -0.370715    18A     -0.346055

  @DF-RHF Final Energy:  -224.76243506343621

   => Energetics <=

    Nuclear Repulsion Energy =            166.6286028459928730
    One-Electron Energy =                -633.5084734900718786
    Two-Electron Energy =                 242.1174355806427911
    Total Energy =                       -224.7624350634362145

  Dipole Moment: [D]
     X:     0.7394      Y:    -1.4336      Z:    -1.7871     Total:     2.4074

    SAPT Results
  --------------------------------------------------------------------------------------------------------
    Electrostatics                 -0.00036985 [mEh]      -0.00023208 [kcal/mol]      -0.00097104 [kJ/mol]
      Elst10,r                     -0.00036985 [mEh]      -0.00023208 [kcal/mol]      -0.00097104 [kJ/mol]

    Exchange                        0.00000000 [mEh]       0.00000000 [kcal/mol]       0.00000000 [kJ/mol]
      Exch10                        0.00000000 [mEh]       0.00000000 [kcal/mol]       0.00000000 [kJ/mol]
      Exch10(S^2)                   0.00000000 [mEh]       0.00000000 [kcal/mol]       0.00000000 [kJ/mol]

    Induction                       0.00006715 [mEh]       0.00004214 [kcal/mol]       0.00017630 [kJ/mol]
      Ind20,r                      -0.00004608 [mEh]      -0.00002892 [kcal/mol]      -0.00012099 [kJ/mol]
      Exch-Ind20,r                  0.00000000 [mEh]       0.00000000 [kcal/mol]       0.00000001 [kJ/mol]
      delta HF,r (2)                0.00011323 [mEh]       0.00007105 [kcal/mol]       0.00029729 [kJ/mol]

    Dispersion                     -0.00103173 [mEh]      -0.00064742 [kcal/mol]      -0.00270881 [kJ/mol]
      Disp20                       -0.00103173 [mEh]      -0.00064742 [kcal/mol]      -0.00270881 [kJ/mol]
      Exch-Disp20                   0.00000000 [mEh]       0.00000000 [kcal/mol]       0.00000000 [kJ/mol]
      Disp20 (SS)                  -0.00051587 [mEh]      -0.00032371 [kcal/mol]      -0.00135441 [kJ/mol]
      Disp20 (OS)                  -0.00051587 [mEh]      -0.00032371 [kcal/mol]      -0.00135441 [kJ/mol]
      Exch-Disp20 (SS)              0.00000000 [mEh]       0.00000000 [kcal/mol]       0.00000000 [kJ/mol]
      Exch-Disp20 (OS)              0.00000000 [mEh]       0.00000000 [kcal/mol]       0.00000000 [kJ/mol]

  Total HF                         -0.00030270 [mEh]      -0.00018995 [kcal/mol]      -0.00079473 [kJ/mol]
  Total SAPT0                      -0.00133443 [mEh]      -0.00083737 [kcal/mol]      -0.00350354 [kJ/mol]

  Special recipe for scaled SAPT0 (see Manual):
    Electrostatics sSAPT0          -0.00036985 [mEh]      -0.00023208 [kcal/mol]      -0.00097104 [kJ/mol]
    Exchange sSAPT0                 0.00000000 [mEh]       0.00000000 [kcal/mol]       0.00000000 [kJ/mol]
    Induction sSAPT0                0.00006715 [mEh]       0.00004214 [kcal/mol]       0.00017630 [kJ/mol]
    Dispersion sSAPT0              -0.00103173 [mEh]      -0.00064742 [kcal/mol]      -0.00270881 [kJ/mol]
  Total sSAPT0                     -0.00133443 [mEh]      -0.00083737 [kcal/mol]      -0.00350354 [kJ/mol]
  --------------------------------------------------------------------------------------------------------

*** Psi4 exiting successfully. Buy a developer a beer!
