                               Psi4 1.4rc3

  ==> Input File <==

--------------------------------------------------------------------------
# PSI4 file produced by CrystaLattE

# Generated from:               pyrazole.xyz
# Psithon input for N-mer:      2mer-0+362
# Number of atoms per monomer:  [9, 9]
# Number of replicas:           1
# COM priority:                 1.418575921770e-05
# Minimum COM separations:      21.860
# Separation priority:          2.224037181157e-05
# Minimum monomer separations:  18.817
# Cutoff priority:              6.254453834777e-07
# Nuclear repulsion energy:     364.6529448418786

memory 7 GB

molecule Dimer_0_362 {
  N            6.27981210      -4.25303372       0.19313865
  N            6.06870777      -2.28125697       1.80544317
  H            3.66871156      -5.64628941      -1.96684001
  H            0.69034521      -2.37545694      -0.42864236
  H            3.35917442       0.17650601       3.09265017
  H            7.35266782      -1.99461311       2.90680702
  C            3.77952586      -1.21508453       1.76858172
  C            2.38242998      -2.55505538       0.04607681
  C            4.01771468      -4.38410490      -0.88761863
--
  N           -4.94029013      21.49448368     -33.53956902
  N           -4.82142787      19.45657665     -32.00239530
  H           -2.26712739      23.89539365     -34.25759937
  H            0.62750917      21.45285491     -31.50246187
  H           -2.30891491      17.73980589     -29.59782556
  H           -6.28383608      18.64659959     -31.61662997
  C           -2.53859146      19.12640098     -30.97334645
  C           -1.05559903      21.05607319     -31.86326892
  C           -2.61690436      22.44124101     -33.45496687
units = au
no_com
no_reorient
}

set {
  e_convergence 10
  d_convergence 10
  scf_type df
  mp2_type df
  cc_type df
  freeze_core true
}

energy('sapt0/aug-cc-pvdz')

--------------------------------------------------------------------------

  //              Dimer HF             //
    Molecular point group: c1
  Charge       = 0
  Multiplicity = 1
  Basis Set: AUG-CC-PVDZ
    Blend: AUG-CC-PVDZ
  Basis Set: (AUG-CC-PVDZ AUX)
    Blend: AUG-CC-PVDZ-JKFIT
  @DF-RHF Final Energy:  -449.52477900081453
    Total Energy =                       -449.5247790008145330
  //            Monomer A HF           //
    Molecular point group: c1
  Multiplicity = 1
  Basis Set: AUG-CC-PVDZ
    Blend: AUG-CC-PVDZ
  Basis Set: (AUG-CC-PVDZ AUX)
    Blend: AUG-CC-PVDZ-JKFIT
  @DF-RHF Final Energy:  -224.76233952132097
    Total Energy =                       -224.7623395213209676
  //            Monomer B HF           //
    Molecular point group: c1

    Geometry (in Bohr), charge = 0, multiplicity = 1:

       Center              X                  Y                   Z               Mass
    ------------   -----------------  -----------------  -----------------  -----------------
      Gh(N)           6.279812100000    -4.253033720000     0.193138650000    14.003074004430
      Gh(N)           6.068707770000    -2.281256970000     1.805443170000    14.003074004430
      Gh(H)           3.668711560000    -5.646289410000    -1.966840010000     1.007825032230
      Gh(H)           0.690345210000    -2.375456940000    -0.428642360000     1.007825032230
      Gh(H)           3.359174420000     0.176506010000     3.092650170000     1.007825032230
      Gh(H)           7.352667820000    -1.994613110000     2.906807020000     1.007825032230
      Gh(C)           3.779525860000    -1.215084530000     1.768581720000    12.000000000000
      Gh(C)           2.382429980000    -2.555055380000     0.046076810000    12.000000000000
      Gh(C)           4.017714680000    -4.384104900000    -0.887618630000    12.000000000000
         N           -4.940290130000    21.494483680000   -33.539569020000    14.003074004430
         N           -4.821427870000    19.456576650000   -32.002395300000    14.003074004430
         H           -2.267127390000    23.895393650000   -34.257599370000     1.007825032230
         H            0.627509170000    21.452854910000   -31.502461870000     1.007825032230
         H           -2.308914910000    17.739805890000   -29.597825560000     1.007825032230
         H           -6.283836080000    18.646599590000   -31.616629970000     1.007825032230
         C           -2.538591460000    19.126400980000   -30.973346450000    12.000000000000
         C           -1.055599030000    21.056073190000   -31.863268920000    12.000000000000
         C           -2.616904360000    22.441241010000   -33.454966870000    12.000000000000

  Charge       = 0
  Multiplicity = 1
  Basis Set: AUG-CC-PVDZ
    Blend: AUG-CC-PVDZ
  Basis Set: (AUG-CC-PVDZ AUX)
    Blend: AUG-CC-PVDZ-JKFIT

    Orbital Energies [Eh]
    ---------------------

    Doubly Occupied:

       1A    -15.636233     2A    -15.592291     3A    -11.279903
       4A    -11.237759     5A    -11.209884     6A     -1.387001
       7A     -1.121894     8A     -1.066928     9A     -0.872759
      10A     -0.837039    11A     -0.757272    12A     -0.645745
      13A     -0.620828    14A     -0.609177    15A     -0.583905
      16A     -0.461413    17A     -0.370715    18A     -0.346055

  @DF-RHF Final Energy:  -224.76243506202181

   => Energetics <=

    Nuclear Repulsion Energy =            166.6286027396206180
    One-Electron Energy =                -633.5084732626326058
    Two-Electron Energy =                 242.1174354609901513
    Total Energy =                       -224.7624350620218081

  Dipole Moment: [D]
     X:     0.7394      Y:    -1.4336      Z:     1.7871     Total:     2.4074

    SAPT Results
  --------------------------------------------------------------------------------------------------------
    Electrostatics                 -0.00446250 [mEh]      -0.00280026 [kcal/mol]      -0.01171629 [kJ/mol]
      Elst10,r                     -0.00446250 [mEh]      -0.00280026 [kcal/mol]      -0.01171629 [kJ/mol]

    Exchange                        0.00000000 [mEh]       0.00000000 [kcal/mol]       0.00000000 [kJ/mol]
      Exch10                        0.00000000 [mEh]       0.00000000 [kcal/mol]       0.00000000 [kJ/mol]
      Exch10(S^2)                   0.00000000 [mEh]       0.00000000 [kcal/mol]       0.00000000 [kJ/mol]

    Induction                       0.00004503 [mEh]       0.00002826 [kcal/mol]       0.00011822 [kJ/mol]
      Ind20,r                      -0.00001829 [mEh]      -0.00001148 [kcal/mol]      -0.00004803 [kJ/mol]
      Exch-Ind20,r                  0.00000000 [mEh]       0.00000000 [kcal/mol]       0.00000000 [kJ/mol]
      delta HF,r (2)                0.00006332 [mEh]       0.00003973 [kcal/mol]       0.00016625 [kJ/mol]

    Dispersion                     -0.00023497 [mEh]      -0.00014745 [kcal/mol]      -0.00061692 [kJ/mol]
      Disp20                       -0.00023497 [mEh]      -0.00014745 [kcal/mol]      -0.00061692 [kJ/mol]
      Exch-Disp20                   0.00000000 [mEh]       0.00000000 [kcal/mol]       0.00000000 [kJ/mol]
      Disp20 (SS)                  -0.00011749 [mEh]      -0.00007372 [kcal/mol]      -0.00030846 [kJ/mol]
      Disp20 (OS)                  -0.00011749 [mEh]      -0.00007372 [kcal/mol]      -0.00030846 [kJ/mol]
      Exch-Disp20 (SS)              0.00000000 [mEh]       0.00000000 [kcal/mol]       0.00000000 [kJ/mol]
      Exch-Disp20 (OS)              0.00000000 [mEh]       0.00000000 [kcal/mol]       0.00000000 [kJ/mol]

  Total HF                         -0.00441747 [mEh]      -0.00277201 [kcal/mol]      -0.01159807 [kJ/mol]
  Total SAPT0                      -0.00465245 [mEh]      -0.00291945 [kcal/mol]      -0.01221500 [kJ/mol]

  Special recipe for scaled SAPT0 (see Manual):
    Electrostatics sSAPT0          -0.00446250 [mEh]      -0.00280026 [kcal/mol]      -0.01171629 [kJ/mol]
    Exchange sSAPT0                 0.00000000 [mEh]       0.00000000 [kcal/mol]       0.00000000 [kJ/mol]
    Induction sSAPT0                0.00004503 [mEh]       0.00002826 [kcal/mol]       0.00011822 [kJ/mol]
    Dispersion sSAPT0              -0.00023497 [mEh]      -0.00014745 [kcal/mol]      -0.00061692 [kJ/mol]
  Total sSAPT0                     -0.00465245 [mEh]      -0.00291945 [kcal/mol]      -0.01221500 [kJ/mol]
  --------------------------------------------------------------------------------------------------------

*** Psi4 exiting successfully. Buy a developer a beer!
