                               Psi4 1.4rc3

  ==> Input File <==

--------------------------------------------------------------------------
# PSI4 file produced by CrystaLattE

# Generated from:               pyrazole.xyz
# Psithon input for N-mer:      2mer-0+82
# Number of atoms per monomer:  [9, 9]
# Number of replicas:           1
# COM priority:                 1.889092556300e-04
# Minimum COM separations:      9.223
# Separation priority:          2.691637793011e-04
# Minimum monomer separations:  8.196
# Cutoff priority:              1.737889489765e-05
# Nuclear repulsion energy:     406.43683984674635

memory 7 GB

molecule Dimer_0_82 {
  N            6.27981210      -4.25303372       0.19313865
  N            6.06870777      -2.28125697       1.80544317
  H            3.66871156      -5.64628941      -1.96684001
  H            0.69034521      -2.37545694      -0.42864236
  H            3.35917442       0.17650601       3.09265017
  H            7.35266782      -1.99461311       2.90680702
  C            3.77952586      -1.21508453       1.76858172
  C            2.38242998      -2.55505538       0.04607681
  C            4.01771468      -4.38410490      -0.88761863
--
  N            2.79813836     -14.18732502      14.38697326
  N            2.91700062     -16.22523205      12.84979954
  H            5.47130109     -11.78641505      15.10500361
  H            8.36593765     -14.22895380      12.34986611
  H            5.42951358     -17.94200281      10.44522980
  H            1.45459240     -17.03520911      12.46403422
  C            5.19983702     -16.55540772      11.82075069
  C            6.68282945     -14.62573551      12.71067316
  C            5.12152412     -13.24056769      14.30237111
units = au
no_com
no_reorient
}

set {
  e_convergence 10
  d_convergence 10
  scf_type df
  mp2_type df
  cc_type df
  freeze_core true
}

energy('sapt0/aug-cc-pvdz')

--------------------------------------------------------------------------

  //              Dimer HF             //
    Molecular point group: c1
  Charge       = 0
  Multiplicity = 1
  Basis Set: AUG-CC-PVDZ
    Blend: AUG-CC-PVDZ
  Basis Set: (AUG-CC-PVDZ AUX)
    Blend: AUG-CC-PVDZ-JKFIT
  @DF-RHF Final Energy:  -449.52486233002611
    Total Energy =                       -449.5248623300261670
  //            Monomer A HF           //
    Molecular point group: c1
  Multiplicity = 1
  Basis Set: AUG-CC-PVDZ
    Blend: AUG-CC-PVDZ
  Basis Set: (AUG-CC-PVDZ AUX)
    Blend: AUG-CC-PVDZ-JKFIT
  @DF-RHF Final Energy:  -224.76234634785783
    Total Energy =                       -224.7623463478578287
  //            Monomer B HF           //
    Molecular point group: c1

    Geometry (in Bohr), charge = 0, multiplicity = 1:

       Center              X                  Y                   Z               Mass
    ------------   -----------------  -----------------  -----------------  -----------------
      Gh(N)           6.279812100000    -4.253033720000     0.193138650000    14.003074004430
      Gh(N)           6.068707770000    -2.281256970000     1.805443170000    14.003074004430
      Gh(H)           3.668711560000    -5.646289410000    -1.966840010000     1.007825032230
      Gh(H)           0.690345210000    -2.375456940000    -0.428642360000     1.007825032230
      Gh(H)           3.359174420000     0.176506010000     3.092650170000     1.007825032230
      Gh(H)           7.352667820000    -1.994613110000     2.906807020000     1.007825032230
      Gh(C)           3.779525860000    -1.215084530000     1.768581720000    12.000000000000
      Gh(C)           2.382429980000    -2.555055380000     0.046076810000    12.000000000000
      Gh(C)           4.017714680000    -4.384104900000    -0.887618630000    12.000000000000
         N            2.798138360000   -14.187325020000    14.386973260000    14.003074004430
         N            2.917000620000   -16.225232050000    12.849799540000    14.003074004430
         H            5.471301090000   -11.786415050000    15.105003610000     1.007825032230
         H            8.365937650000   -14.228953800000    12.349866110000     1.007825032230
         H            5.429513580000   -17.942002810000    10.445229800000     1.007825032230
         H            1.454592400000   -17.035209110000    12.464034220000     1.007825032230
         C            5.199837020000   -16.555407720000    11.820750690000    12.000000000000
         C            6.682829450000   -14.625735510000    12.710673160000    12.000000000000
         C            5.121524120000   -13.240567690000    14.302371110000    12.000000000000

  Charge       = 0
  Multiplicity = 1
  Basis Set: AUG-CC-PVDZ
    Blend: AUG-CC-PVDZ
  Basis Set: (AUG-CC-PVDZ AUX)
    Blend: AUG-CC-PVDZ-JKFIT

    Orbital Energies [Eh]
    ---------------------

    Doubly Occupied:

       1A    -15.636235     2A    -15.592293     3A    -11.279905
       4A    -11.237759     5A    -11.209887     6A     -1.387003
       7A     -1.121895     8A     -1.066930     9A     -0.872761
      10A     -0.837041    11A     -0.757274    12A     -0.645747
      13A     -0.620830    14A     -0.609179    15A     -0.583908
      16A     -0.461415    17A     -0.370716    18A     -0.346056

  @DF-RHF Final Energy:  -224.76244100663422

   => Energetics <=

    Nuclear Repulsion Energy =            166.6286029326277571
    One-Electron Energy =                -633.5084198832258835
    Two-Electron Energy =                 242.1173759439639070
    Total Energy =                       -224.7624410066342193

  Dipole Moment: [D]
     X:     0.7394      Y:    -1.4335      Z:    -1.7873     Total:     2.4075

    SAPT Results
  --------------------------------------------------------------------------------------------------------
    Electrostatics                 -0.07334905 [mEh]      -0.04602722 [kcal/mol]      -0.19257791 [kJ/mol]
      Elst10,r                     -0.07334905 [mEh]      -0.04602722 [kcal/mol]      -0.19257791 [kJ/mol]

    Exchange                        0.00000196 [mEh]       0.00000123 [kcal/mol]       0.00000516 [kJ/mol]
      Exch10                        0.00000196 [mEh]       0.00000123 [kcal/mol]       0.00000516 [kJ/mol]
      Exch10(S^2)                   0.00000196 [mEh]       0.00000123 [kcal/mol]       0.00000516 [kJ/mol]

    Induction                      -0.00162845 [mEh]      -0.00102187 [kcal/mol]      -0.00427549 [kJ/mol]
      Ind20,r                      -0.00179095 [mEh]      -0.00112384 [kcal/mol]      -0.00470215 [kJ/mol]
      Exch-Ind20,r                  0.00001094 [mEh]       0.00000687 [kcal/mol]       0.00002873 [kJ/mol]
      delta HF,r (2)                0.00015157 [mEh]       0.00009511 [kcal/mol]       0.00039794 [kJ/mol]

    Dispersion                     -0.03467597 [mEh]      -0.02175950 [kcal/mol]      -0.09104174 [kJ/mol]
      Disp20                       -0.03467750 [mEh]      -0.02176046 [kcal/mol]      -0.09104576 [kJ/mol]
      Exch-Disp20                   0.00000153 [mEh]       0.00000096 [kcal/mol]       0.00000402 [kJ/mol]
      Disp20 (SS)                  -0.01733875 [mEh]      -0.01088023 [kcal/mol]      -0.04552288 [kJ/mol]
      Disp20 (OS)                  -0.01733875 [mEh]      -0.01088023 [kcal/mol]      -0.04552288 [kJ/mol]
      Exch-Disp20 (SS)              0.00000131 [mEh]       0.00000082 [kcal/mol]       0.00000344 [kJ/mol]
      Exch-Disp20 (OS)              0.00000022 [mEh]       0.00000014 [kcal/mol]       0.00000059 [kJ/mol]

  Total HF                         -0.07497553 [mEh]      -0.04704786 [kcal/mol]      -0.19684824 [kJ/mol]
  Total SAPT0                      -0.10965150 [mEh]      -0.06880736 [kcal/mol]      -0.28788998 [kJ/mol]

  Special recipe for scaled SAPT0 (see Manual):
    Electrostatics sSAPT0          -0.07334905 [mEh]      -0.04602722 [kcal/mol]      -0.19257791 [kJ/mol]
    Exchange sSAPT0                 0.00000196 [mEh]       0.00000123 [kcal/mol]       0.00000516 [kJ/mol]
    Induction sSAPT0               -0.00162845 [mEh]      -0.00102187 [kcal/mol]      -0.00427549 [kJ/mol]
    Dispersion sSAPT0              -0.03467597 [mEh]      -0.02175950 [kcal/mol]      -0.09104174 [kJ/mol]
  Total sSAPT0                     -0.10965150 [mEh]      -0.06880736 [kcal/mol]      -0.28788998 [kJ/mol]
  --------------------------------------------------------------------------------------------------------

*** Psi4 exiting successfully. Buy a developer a beer!
