                               Psi4 1.4rc3

  ==> Input File <==

--------------------------------------------------------------------------
# PSI4 file produced by CrystaLattE

# Generated from:               pyrazole.xyz
# Psithon input for N-mer:      2mer-0+145
# Number of atoms per monomer:  [9, 9]
# Number of replicas:           2
# COM priority:                 4.304567482148e-05
# Minimum COM separations:      15.099
# Separation priority:          6.400390321368e-05
# Minimum monomer separations:  13.229
# Cutoff priority:              2.560208173512e-06
# Nuclear repulsion energy:     378.4855523477295

memory 7 GB

molecule Dimer_0_145 {
  N            6.27981210      -4.25303372       0.19313865
  N            6.06870777      -2.28125697       1.80544317
  H            3.66871156      -5.64628941      -1.96684001
  H            0.69034521      -2.37545694      -0.42864236
  H            3.35917442       0.17650601       3.09265017
  H            7.35266782      -1.99461311       2.90680702
  C            3.77952586      -1.21508453       1.76858172
  C            2.38242998      -2.55505538       0.04607681
  C            4.01771468      -4.38410490      -0.88761863
--
  N           -1.45861638       4.36055490     -25.74529193
  N           -1.66972071       2.38877815     -27.35759645
  H           -4.06971692       5.75381059     -23.58531327
  H           -7.04808328       2.48297813     -25.12351092
  H           -4.37925406      -0.06898483     -28.64480345
  H           -0.38576066       2.10213429     -28.45896030
  C           -3.95890263       1.32260571     -27.32073500
  C           -5.35599851       2.66257657     -25.59823010
  C           -3.72071380       4.49162608     -24.66453465
units = au
no_com
no_reorient
}

set {
  e_convergence 10
  d_convergence 10
  scf_type df
  mp2_type df
  cc_type df
  freeze_core true
}

energy('sapt0/aug-cc-pvdz')

--------------------------------------------------------------------------

  //              Dimer HF             //
    Molecular point group: c1
  Charge       = 0
  Multiplicity = 1
  Basis Set: AUG-CC-PVDZ
    Blend: AUG-CC-PVDZ
  Basis Set: (AUG-CC-PVDZ AUX)
    Blend: AUG-CC-PVDZ-JKFIT
  @DF-RHF Final Energy:  -449.52466263623751
    Total Energy =                       -449.5246626362375082
  //            Monomer A HF           //
    Molecular point group: c1
  Multiplicity = 1
  Basis Set: AUG-CC-PVDZ
    Blend: AUG-CC-PVDZ
  Basis Set: (AUG-CC-PVDZ AUX)
    Blend: AUG-CC-PVDZ-JKFIT
  @DF-RHF Final Energy:  -224.76233952553733
    Total Energy =                       -224.7623395255373282
  //            Monomer B HF           //
    Molecular point group: c1

    Geometry (in Bohr), charge = 0, multiplicity = 1:

       Center              X                  Y                   Z               Mass
    ------------   -----------------  -----------------  -----------------  -----------------
      Gh(N)           6.279812100000    -4.253033720000     0.193138650000    14.003074004430
      Gh(N)           6.068707770000    -2.281256970000     1.805443170000    14.003074004430
      Gh(H)           3.668711560000    -5.646289410000    -1.966840010000     1.007825032230
      Gh(H)           0.690345210000    -2.375456940000    -0.428642360000     1.007825032230
      Gh(H)           3.359174420000     0.176506010000     3.092650170000     1.007825032230
      Gh(H)           7.352667820000    -1.994613110000     2.906807020000     1.007825032230
      Gh(C)           3.779525860000    -1.215084530000     1.768581720000    12.000000000000
      Gh(C)           2.382429980000    -2.555055380000     0.046076810000    12.000000000000
      Gh(C)           4.017714680000    -4.384104900000    -0.887618630000    12.000000000000
         N           -1.458616380000     4.360554900000   -25.745291930000    14.003074004430
         N           -1.669720710000     2.388778150000   -27.357596450000    14.003074004430
         H           -4.069716920000     5.753810590000   -23.585313270000     1.007825032230
         H           -7.048083280000     2.482978130000   -25.123510920000     1.007825032230
         H           -4.379254060000    -0.068984830000   -28.644803450000     1.007825032230
         H           -0.385760660000     2.102134290000   -28.458960300000     1.007825032230
         C           -3.958902630000     1.322605710000   -27.320735000000    12.000000000000
         C           -5.355998510000     2.662576570000   -25.598230100000    12.000000000000
         C           -3.720713800000     4.491626080000   -24.664534650000    12.000000000000

  Charge       = 0
  Multiplicity = 1
  Basis Set: AUG-CC-PVDZ
    Blend: AUG-CC-PVDZ
  Basis Set: (AUG-CC-PVDZ AUX)
    Blend: AUG-CC-PVDZ-JKFIT

    Orbital Energies [Eh]
    ---------------------

    Doubly Occupied:

       1A    -15.636223     2A    -15.592313     3A    -11.279894
       4A    -11.237784     5A    -11.209891     6A     -1.386922
       7A     -1.121901     8A     -1.066898     9A     -0.872768
      10A     -0.837061    11A     -0.757292    12A     -0.645746
      13A     -0.620834    14A     -0.609140    15A     -0.583920
      16A     -0.461404    17A     -0.370721    18A     -0.346048

  @DF-RHF Final Energy:  -224.76233952728904

   => Energetics <=

    Nuclear Repulsion Energy =            166.6240563307950424
    One-Electron Energy =                -633.4992731957299839
    Two-Electron Energy =                 242.1128773376458980
    Total Energy =                       -224.7623395272890434

  Dipole Moment: [D]
     X:    -1.0235      Y:    -1.6055      Z:    -1.4733     Total:     2.4075

    SAPT Results
  --------------------------------------------------------------------------------------------------------
    Electrostatics                  0.01640531 [mEh]       0.01029449 [kcal/mol]       0.04307213 [kJ/mol]
      Elst10,r                      0.01640531 [mEh]       0.01029449 [kcal/mol]       0.04307213 [kJ/mol]

    Exchange                        0.00000000 [mEh]       0.00000000 [kcal/mol]       0.00000001 [kJ/mol]
      Exch10                        0.00000000 [mEh]       0.00000000 [kcal/mol]       0.00000001 [kJ/mol]
      Exch10(S^2)                   0.00000000 [mEh]       0.00000000 [kcal/mol]       0.00000001 [kJ/mol]

    Induction                       0.00001128 [mEh]       0.00000708 [kcal/mol]       0.00002961 [kJ/mol]
      Ind20,r                      -0.00009647 [mEh]      -0.00006053 [kcal/mol]      -0.00025327 [kJ/mol]
      Exch-Ind20,r                  0.00000001 [mEh]       0.00000000 [kcal/mol]       0.00000002 [kJ/mol]
      delta HF,r (2)                0.00010774 [mEh]       0.00006761 [kcal/mol]       0.00028286 [kJ/mol]

    Dispersion                     -0.00201746 [mEh]      -0.00126597 [kcal/mol]      -0.00529684 [kJ/mol]
      Disp20                       -0.00201746 [mEh]      -0.00126597 [kcal/mol]      -0.00529684 [kJ/mol]
      Exch-Disp20                   0.00000000 [mEh]       0.00000000 [kcal/mol]       0.00000000 [kJ/mol]
      Disp20 (SS)                  -0.00100873 [mEh]      -0.00063299 [kcal/mol]      -0.00264842 [kJ/mol]
      Disp20 (OS)                  -0.00100873 [mEh]      -0.00063299 [kcal/mol]      -0.00264842 [kJ/mol]
      Exch-Disp20 (SS)              0.00000000 [mEh]       0.00000000 [kcal/mol]       0.00000000 [kJ/mol]
      Exch-Disp20 (OS)              0.00000000 [mEh]       0.00000000 [kcal/mol]       0.00000000 [kJ/mol]

  Total HF                          0.01641659 [mEh]       0.01030157 [kcal/mol]       0.04310175 [kJ/mol]
  Total SAPT0                       0.01439913 [mEh]       0.00903559 [kcal/mol]       0.03780491 [kJ/mol]

  Special recipe for scaled SAPT0 (see Manual):
    Electrostatics sSAPT0           0.01640531 [mEh]       0.01029449 [kcal/mol]       0.04307213 [kJ/mol]
    Exchange sSAPT0                 0.00000000 [mEh]       0.00000000 [kcal/mol]       0.00000001 [kJ/mol]
    Induction sSAPT0                0.00001128 [mEh]       0.00000708 [kcal/mol]       0.00002961 [kJ/mol]
    Dispersion sSAPT0              -0.00201746 [mEh]      -0.00126597 [kcal/mol]      -0.00529684 [kJ/mol]
  Total sSAPT0                      0.01439913 [mEh]       0.00903559 [kcal/mol]       0.03780491 [kJ/mol]
  --------------------------------------------------------------------------------------------------------

*** Psi4 exiting successfully. Buy a developer a beer!
