                               Psi4 1.4rc3

  ==> Input File <==

--------------------------------------------------------------------------
# PSI4 file produced by CrystaLattE

# Generated from:               pyrazole.xyz
# Psithon input for N-mer:      2mer-0+578
# Number of atoms per monomer:  [9, 9]
# Number of replicas:           2
# COM priority:                 1.164617960566e-05
# Minimum COM separations:      23.346
# Separation priority:          1.913290513731e-05
# Minimum monomer separations:  19.785
# Cutoff priority:              5.117304079673e-07
# Nuclear repulsion energy:     362.61948274468995

memory 7 GB

molecule Dimer_0_578 {
  N            6.27981210      -4.25303372       0.19313865
  N            6.06870777      -2.28125697       1.80544317
  H            3.66871156      -5.64628941      -1.96684001
  H            0.69034521      -2.37545694      -0.42864236
  H            3.35917442       0.17650601       3.09265017
  H            7.35266782      -1.99461311       2.90680702
  C            3.77952586      -1.21508453       1.76858172
  C            2.38242998      -2.55505538       0.04607681
  C            4.01771468      -4.38410490      -0.88761863
--
  N           -1.45861638     -19.42731757     -38.54440698
  N           -1.66972071     -21.39909431     -40.15671150
  H           -4.06971692     -18.03406187     -36.38442832
  H           -7.04808328     -21.30489434     -37.92262597
  H           -4.37925406     -23.85685730     -41.44391850
  H           -0.38576066     -21.68573818     -41.25807535
  C           -3.95890263     -22.46526676     -40.11985005
  C           -5.35599851     -21.12529590     -38.39734514
  C           -3.72071380     -19.29624639     -37.46364970
units = au
no_com
no_reorient
}

set {
  e_convergence 10
  d_convergence 10
  scf_type df
  mp2_type df
  cc_type df
  freeze_core true
}

energy('sapt0/aug-cc-pvdz')

--------------------------------------------------------------------------

  //              Dimer HF             //
    Molecular point group: c1
  Charge       = 0
  Multiplicity = 1
  Basis Set: AUG-CC-PVDZ
    Blend: AUG-CC-PVDZ
  Basis Set: (AUG-CC-PVDZ AUX)
    Blend: AUG-CC-PVDZ-JKFIT
  @DF-RHF Final Energy:  -449.52466670695628
    Total Energy =                       -449.5246667069562818
  //            Monomer A HF           //
    Molecular point group: c1
  Multiplicity = 1
  Basis Set: AUG-CC-PVDZ
    Blend: AUG-CC-PVDZ
  Basis Set: (AUG-CC-PVDZ AUX)
    Blend: AUG-CC-PVDZ-JKFIT
  @DF-RHF Final Energy:  -224.76233952117511
    Total Energy =                       -224.7623395211751074
  //            Monomer B HF           //
    Molecular point group: c1

    Geometry (in Bohr), charge = 0, multiplicity = 1:

       Center              X                  Y                   Z               Mass
    ------------   -----------------  -----------------  -----------------  -----------------
      Gh(N)           6.279812100000    -4.253033720000     0.193138650000    14.003074004430
      Gh(N)           6.068707770000    -2.281256970000     1.805443170000    14.003074004430
      Gh(H)           3.668711560000    -5.646289410000    -1.966840010000     1.007825032230
      Gh(H)           0.690345210000    -2.375456940000    -0.428642360000     1.007825032230
      Gh(H)           3.359174420000     0.176506010000     3.092650170000     1.007825032230
      Gh(H)           7.352667820000    -1.994613110000     2.906807020000     1.007825032230
      Gh(C)           3.779525860000    -1.215084530000     1.768581720000    12.000000000000
      Gh(C)           2.382429980000    -2.555055380000     0.046076810000    12.000000000000
      Gh(C)           4.017714680000    -4.384104900000    -0.887618630000    12.000000000000
         N           -1.458616380000   -19.427317570000   -38.544406980000    14.003074004430
         N           -1.669720710000   -21.399094310000   -40.156711500000    14.003074004430
         H           -4.069716920000   -18.034061870000   -36.384428320000     1.007825032230
         H           -7.048083280000   -21.304894340000   -37.922625970000     1.007825032230
         H           -4.379254060000   -23.856857300000   -41.443918500000     1.007825032230
         H           -0.385760660000   -21.685738180000   -41.258075350000     1.007825032230
         C           -3.958902630000   -22.465266760000   -40.119850050000    12.000000000000
         C           -5.355998510000   -21.125295900000   -38.397345140000    12.000000000000
         C           -3.720713800000   -19.296246390000   -37.463649700000    12.000000000000

  Charge       = 0
  Multiplicity = 1
  Basis Set: AUG-CC-PVDZ
    Blend: AUG-CC-PVDZ
  Basis Set: (AUG-CC-PVDZ AUX)
    Blend: AUG-CC-PVDZ-JKFIT

    Orbital Energies [Eh]
    ---------------------

    Doubly Occupied:

       1A    -15.636223     2A    -15.592313     3A    -11.279894
       4A    -11.237784     5A    -11.209891     6A     -1.386922
       7A     -1.121901     8A     -1.066898     9A     -0.872768
      10A     -0.837061    11A     -0.757292    12A     -0.645746
      13A     -0.620834    14A     -0.609140    15A     -0.583920
      16A     -0.461404    17A     -0.370721    18A     -0.346048

  @DF-RHF Final Energy:  -224.76233952315954

   => Energetics <=

    Nuclear Repulsion Energy =            166.6240563223170454
    One-Electron Energy =                -633.4992731375571111
    Two-Electron Energy =                 242.1128772920804977
    Total Energy =                       -224.7623395231595396

  Dipole Moment: [D]
     X:    -1.0235      Y:    -1.6055      Z:    -1.4733     Total:     2.4075

    SAPT Results
  --------------------------------------------------------------------------------------------------------
    Electrostatics                  0.01228942 [mEh]       0.00771173 [kcal/mol]       0.03226588 [kJ/mol]
      Elst10,r                      0.01228942 [mEh]       0.00771173 [kcal/mol]       0.03226588 [kJ/mol]

    Exchange                        0.00000000 [mEh]       0.00000000 [kcal/mol]       0.00000000 [kJ/mol]
      Exch10                        0.00000000 [mEh]       0.00000000 [kcal/mol]       0.00000000 [kJ/mol]
      Exch10(S^2)                   0.00000000 [mEh]       0.00000000 [kcal/mol]       0.00000000 [kJ/mol]

    Induction                       0.00004795 [mEh]       0.00003009 [kcal/mol]       0.00012591 [kJ/mol]
      Ind20,r                      -0.00001227 [mEh]      -0.00000770 [kcal/mol]      -0.00003222 [kJ/mol]
      Exch-Ind20,r                  0.00000000 [mEh]       0.00000000 [kcal/mol]       0.00000000 [kJ/mol]
      delta HF,r (2)                0.00006023 [mEh]       0.00003779 [kcal/mol]       0.00015812 [kJ/mol]

    Dispersion                     -0.00016829 [mEh]      -0.00010561 [kcal/mol]      -0.00044185 [kJ/mol]
      Disp20                       -0.00016829 [mEh]      -0.00010561 [kcal/mol]      -0.00044185 [kJ/mol]
      Exch-Disp20                   0.00000000 [mEh]       0.00000000 [kcal/mol]       0.00000000 [kJ/mol]
      Disp20 (SS)                  -0.00008415 [mEh]      -0.00005280 [kcal/mol]      -0.00022093 [kJ/mol]
      Disp20 (OS)                  -0.00008415 [mEh]      -0.00005280 [kcal/mol]      -0.00022093 [kJ/mol]
      Exch-Disp20 (SS)              0.00000000 [mEh]       0.00000000 [kcal/mol]       0.00000000 [kJ/mol]
      Exch-Disp20 (OS)              0.00000000 [mEh]       0.00000000 [kcal/mol]       0.00000000 [kJ/mol]

  Total HF                          0.01233738 [mEh]       0.00774182 [kcal/mol]       0.03239178 [kJ/mol]
  Total SAPT0                       0.01216908 [mEh]       0.00763622 [kcal/mol]       0.03194993 [kJ/mol]

  Special recipe for scaled SAPT0 (see Manual):
    Electrostatics sSAPT0           0.01228942 [mEh]       0.00771173 [kcal/mol]       0.03226588 [kJ/mol]
    Exchange sSAPT0                 0.00000000 [mEh]       0.00000000 [kcal/mol]       0.00000000 [kJ/mol]
    Induction sSAPT0                0.00004795 [mEh]       0.00003009 [kcal/mol]       0.00012591 [kJ/mol]
    Dispersion sSAPT0              -0.00016829 [mEh]      -0.00010561 [kcal/mol]      -0.00044185 [kJ/mol]
  Total sSAPT0                      0.01216908 [mEh]       0.00763622 [kcal/mol]       0.03194993 [kJ/mol]
  --------------------------------------------------------------------------------------------------------

*** Psi4 exiting successfully. Buy a developer a beer!
