                               Psi4 1.4rc3

  ==> Input File <==

--------------------------------------------------------------------------
# PSI4 file produced by CrystaLattE

# Generated from:               pyrazole.xyz
# Psithon input for N-mer:      2mer-0+497
# Number of atoms per monomer:  [9, 9]
# Number of replicas:           2
# COM priority:                 1.483038623471e-05
# Minimum COM separations:      21.539
# Separation priority:          2.171874589631e-05
# Minimum monomer separations:  18.967
# Cutoff priority:              6.059633049925e-07
# Nuclear repulsion energy:     365.0776329699342

memory 7 GB

molecule Dimer_0_497 {
  N            6.27981210      -4.25303372       0.19313865
  N            6.06870777      -2.28125697       1.80544317
  H            3.66871156      -5.64628941      -1.96684001
  H            0.69034521      -2.37545694      -0.42864236
  H            3.35917442       0.17650601       3.09265017
  H            7.35266782      -1.99461311       2.90680702
  C            3.77952586      -1.21508453       1.76858172
  C            2.38242998      -2.55505538       0.04607681
  C            4.01771468      -4.38410490      -0.88761863
--
  N           14.01824058      31.42877498      19.05161074
  N           13.80713625      33.40055173      17.43930622
  H           11.40714004      30.03551929      21.21158940
  H            8.42877369      33.30635176      19.67339175
  H           11.09760290      35.85831471      16.15209922
  H           15.09109631      33.68719559      16.33794237
  C           11.51795434      34.46672418      17.47616767
  C           10.12085846      33.12675332      19.19867257
  C           11.75614317      31.29770381      20.13236801
units = au
no_com
no_reorient
}

set {
  e_convergence 10
  d_convergence 10
  scf_type df
  mp2_type df
  cc_type df
  freeze_core true
}

energy('sapt0/aug-cc-pvdz')

--------------------------------------------------------------------------

  //              Dimer HF             //
    Molecular point group: c1
  Charge       = 0
  Multiplicity = 1
  Basis Set: AUG-CC-PVDZ
    Blend: AUG-CC-PVDZ
  Basis Set: (AUG-CC-PVDZ AUX)
    Blend: AUG-CC-PVDZ-JKFIT
  @DF-RHF Final Energy:  -449.52468982326491
    Total Energy =                       -449.5246898232649073
  //            Monomer A HF           //
    Molecular point group: c1
  Multiplicity = 1
  Basis Set: AUG-CC-PVDZ
    Blend: AUG-CC-PVDZ
  Basis Set: (AUG-CC-PVDZ AUX)
    Blend: AUG-CC-PVDZ-JKFIT
  @DF-RHF Final Energy:  -224.76233952134260
    Total Energy =                       -224.7623395213425965
  //            Monomer B HF           //
    Molecular point group: c1

    Geometry (in Bohr), charge = 0, multiplicity = 1:

       Center              X                  Y                   Z               Mass
    ------------   -----------------  -----------------  -----------------  -----------------
      Gh(N)           6.279812100000    -4.253033720000     0.193138650000    14.003074004430
      Gh(N)           6.068707770000    -2.281256970000     1.805443170000    14.003074004430
      Gh(H)           3.668711560000    -5.646289410000    -1.966840010000     1.007825032230
      Gh(H)           0.690345210000    -2.375456940000    -0.428642360000     1.007825032230
      Gh(H)           3.359174420000     0.176506010000     3.092650170000     1.007825032230
      Gh(H)           7.352667820000    -1.994613110000     2.906807020000     1.007825032230
      Gh(C)           3.779525860000    -1.215084530000     1.768581720000    12.000000000000
      Gh(C)           2.382429980000    -2.555055380000     0.046076810000    12.000000000000
      Gh(C)           4.017714680000    -4.384104900000    -0.887618630000    12.000000000000
         N           14.018240580000    31.428774980000    19.051610740000    14.003074004430
         N           13.807136250000    33.400551730000    17.439306220000    14.003074004430
         H           11.407140040000    30.035519290000    21.211589400000     1.007825032230
         H            8.428773690000    33.306351760000    19.673391750000     1.007825032230
         H           11.097602900000    35.858314710000    16.152099220000     1.007825032230
         H           15.091096310000    33.687195590000    16.337942370000     1.007825032230
         C           11.517954340000    34.466724180000    17.476167670000    12.000000000000
         C           10.120858460000    33.126753320000    19.198672570000    12.000000000000
         C           11.756143170000    31.297703810000    20.132368010000    12.000000000000

  Charge       = 0
  Multiplicity = 1
  Basis Set: AUG-CC-PVDZ
    Blend: AUG-CC-PVDZ
  Basis Set: (AUG-CC-PVDZ AUX)
    Blend: AUG-CC-PVDZ-JKFIT

    Orbital Energies [Eh]
    ---------------------

    Doubly Occupied:

       1A    -15.636223     2A    -15.592313     3A    -11.279894
       4A    -11.237784     5A    -11.209891     6A     -1.386922
       7A     -1.121901     8A     -1.066898     9A     -0.872768
      10A     -0.837061    11A     -0.757292    12A     -0.645746
      13A     -0.620834    14A     -0.609140    15A     -0.583920
      16A     -0.461404    17A     -0.370721    18A     -0.346048

  @DF-RHF Final Energy:  -224.76233952565670

   => Energetics <=

    Nuclear Repulsion Energy =            166.6240565278257577
    One-Electron Energy =                -633.4992735586442905
    Two-Electron Energy =                 242.1128775051618334
    Total Energy =                       -224.7623395256566994

  Dipole Moment: [D]
     X:    -1.0235      Y:     1.6055      Z:    -1.4733     Total:     2.4075

    SAPT Results
  --------------------------------------------------------------------------------------------------------
    Electrostatics                 -0.01080698 [mEh]      -0.00678149 [kcal/mol]      -0.02837373 [kJ/mol]
      Elst10,r                     -0.01080698 [mEh]      -0.00678149 [kcal/mol]      -0.02837373 [kJ/mol]

    Exchange                        0.00000000 [mEh]       0.00000000 [kcal/mol]       0.00000000 [kJ/mol]
      Exch10                        0.00000000 [mEh]       0.00000000 [kcal/mol]       0.00000000 [kJ/mol]
      Exch10(S^2)                   0.00000000 [mEh]       0.00000000 [kcal/mol]       0.00000000 [kJ/mol]

    Induction                       0.00003072 [mEh]       0.00001928 [kcal/mol]       0.00008065 [kJ/mol]
      Ind20,r                      -0.00002098 [mEh]      -0.00001316 [kcal/mol]      -0.00005507 [kJ/mol]
      Exch-Ind20,r                  0.00000000 [mEh]       0.00000000 [kcal/mol]       0.00000000 [kJ/mol]
      delta HF,r (2)                0.00005170 [mEh]       0.00003244 [kcal/mol]       0.00013573 [kJ/mol]

    Dispersion                     -0.00024543 [mEh]      -0.00015401 [kcal/mol]      -0.00064439 [kJ/mol]
      Disp20                       -0.00024543 [mEh]      -0.00015401 [kcal/mol]      -0.00064439 [kJ/mol]
      Exch-Disp20                   0.00000000 [mEh]       0.00000000 [kcal/mol]       0.00000000 [kJ/mol]
      Disp20 (SS)                  -0.00012272 [mEh]      -0.00007701 [kcal/mol]      -0.00032219 [kJ/mol]
      Disp20 (OS)                  -0.00012272 [mEh]      -0.00007701 [kcal/mol]      -0.00032219 [kJ/mol]
      Exch-Disp20 (SS)              0.00000000 [mEh]       0.00000000 [kcal/mol]       0.00000000 [kJ/mol]
      Exch-Disp20 (OS)              0.00000000 [mEh]       0.00000000 [kcal/mol]       0.00000000 [kJ/mol]

  Total HF                         -0.01077627 [mEh]      -0.00676221 [kcal/mol]      -0.02829308 [kJ/mol]
  Total SAPT0                      -0.01102170 [mEh]      -0.00691622 [kcal/mol]      -0.02893747 [kJ/mol]

  Special recipe for scaled SAPT0 (see Manual):
    Electrostatics sSAPT0          -0.01080698 [mEh]      -0.00678149 [kcal/mol]      -0.02837373 [kJ/mol]
    Exchange sSAPT0                 0.00000000 [mEh]       0.00000000 [kcal/mol]       0.00000000 [kJ/mol]
    Induction sSAPT0                0.00003072 [mEh]       0.00001928 [kcal/mol]       0.00008065 [kJ/mol]
    Dispersion sSAPT0              -0.00024543 [mEh]      -0.00015401 [kcal/mol]      -0.00064439 [kJ/mol]
  Total sSAPT0                     -0.01102170 [mEh]      -0.00691622 [kcal/mol]      -0.02893747 [kJ/mol]
  --------------------------------------------------------------------------------------------------------

*** Psi4 exiting successfully. Buy a developer a beer!
