                               Psi4 1.4rc3

  ==> Input File <==

--------------------------------------------------------------------------
# PSI4 file produced by CrystaLattE

# Generated from:               pyrazole.xyz
# Psithon input for N-mer:      2mer-0+321
# Number of atoms per monomer:  [9, 9]
# Number of replicas:           2
# COM priority:                 2.137055462691e-05
# Minimum COM separations:      19.069
# Separation priority:          3.183171537842e-05
# Minimum monomer separations:  16.697
# Cutoff priority:              1.008819319345e-06
# Nuclear repulsion energy:     369.1400980603115

memory 7 GB

molecule Dimer_0_321 {
  N            6.27981210      -4.25303372       0.19313865
  N            6.06870777      -2.28125697       1.80544317
  H            3.66871156      -5.64628941      -1.96684001
  H            0.69034521      -2.37545694      -0.42864236
  H            3.35917442       0.17650601       3.09265017
  H            7.35266782      -1.99461311       2.90680702
  C            3.77952586      -1.21508453       1.76858172
  C            2.38242998      -2.55505538       0.04607681
  C            4.01771468      -4.38410490      -0.88761863
--
  N           -9.19704487      -7.53338133      32.19092627
  N           -9.40814920      -9.50515808      33.80323079
  H          -11.80814541      -6.14012564      30.03094761
  H          -14.78651176      -9.41095811      31.56914526
  H          -12.11768255     -11.96292106      35.09043779
  H           -8.12418914      -9.79180194      34.90459464
  C          -11.69733111     -10.57133052      33.76636934
  C          -13.09442699      -9.23135967      32.04386443
  C          -11.45914228      -7.40231015      31.11016899
units = au
no_com
no_reorient
}

set {
  e_convergence 10
  d_convergence 10
  scf_type df
  mp2_type df
  cc_type df
  freeze_core true
}

energy('sapt0/aug-cc-pvdz')

--------------------------------------------------------------------------

  //              Dimer HF             //
    Molecular point group: c1
  Charge       = 0
  Multiplicity = 1
  Basis Set: AUG-CC-PVDZ
    Blend: AUG-CC-PVDZ
  Basis Set: (AUG-CC-PVDZ AUX)
    Blend: AUG-CC-PVDZ-JKFIT
  @DF-RHF Final Energy:  -449.52470220664060
    Total Energy =                       -449.5247022066405407
  //            Monomer A HF           //
    Molecular point group: c1
  Multiplicity = 1
  Basis Set: AUG-CC-PVDZ
    Blend: AUG-CC-PVDZ
  Basis Set: (AUG-CC-PVDZ AUX)
    Blend: AUG-CC-PVDZ-JKFIT
  @DF-RHF Final Energy:  -224.76233952180232
    Total Energy =                       -224.7623395218023177
  //            Monomer B HF           //
    Molecular point group: c1

    Geometry (in Bohr), charge = 0, multiplicity = 1:

       Center              X                  Y                   Z               Mass
    ------------   -----------------  -----------------  -----------------  -----------------
      Gh(N)           6.279812100000    -4.253033720000     0.193138650000    14.003074004430
      Gh(N)           6.068707770000    -2.281256970000     1.805443170000    14.003074004430
      Gh(H)           3.668711560000    -5.646289410000    -1.966840010000     1.007825032230
      Gh(H)           0.690345210000    -2.375456940000    -0.428642360000     1.007825032230
      Gh(H)           3.359174420000     0.176506010000     3.092650170000     1.007825032230
      Gh(H)           7.352667820000    -1.994613110000     2.906807020000     1.007825032230
      Gh(C)           3.779525860000    -1.215084530000     1.768581720000    12.000000000000
      Gh(C)           2.382429980000    -2.555055380000     0.046076810000    12.000000000000
      Gh(C)           4.017714680000    -4.384104900000    -0.887618630000    12.000000000000
         N           -9.197044870000    -7.533381330000    32.190926270000    14.003074004430
         N           -9.408149200000    -9.505158080000    33.803230790000    14.003074004430
         H          -11.808145410000    -6.140125640000    30.030947610000     1.007825032230
         H          -14.786511760000    -9.410958110000    31.569145260000     1.007825032230
         H          -12.117682550000   -11.962921060000    35.090437790000     1.007825032230
         H           -8.124189140000    -9.791801940000    34.904594640000     1.007825032230
         C          -11.697331110000   -10.571330520000    33.766369340000    12.000000000000
         C          -13.094426990000    -9.231359670000    32.043864430000    12.000000000000
         C          -11.459142280000    -7.402310150000    31.110168990000    12.000000000000

  Charge       = 0
  Multiplicity = 1
  Basis Set: AUG-CC-PVDZ
    Blend: AUG-CC-PVDZ
  Basis Set: (AUG-CC-PVDZ AUX)
    Blend: AUG-CC-PVDZ-JKFIT

    Orbital Energies [Eh]
    ---------------------

    Doubly Occupied:

       1A    -15.636223     2A    -15.592313     3A    -11.279894
       4A    -11.237784     5A    -11.209891     6A     -1.386922
       7A     -1.121901     8A     -1.066898     9A     -0.872768
      10A     -0.837061    11A     -0.757292    12A     -0.645746
      13A     -0.620834    14A     -0.609140    15A     -0.583920
      16A     -0.461404    17A     -0.370721    18A     -0.346048

  @DF-RHF Final Energy:  -224.76233952332032

   => Energetics <=

    Nuclear Repulsion Energy =            166.6240564570979359
    One-Electron Energy =                -633.4992734114089217
    Two-Electron Energy =                 242.1128774309906646
    Total Energy =                       -224.7623395233203212

  Dipole Moment: [D]
     X:    -1.0235      Y:    -1.6055      Z:     1.4733     Total:     2.4075

    SAPT Results
  --------------------------------------------------------------------------------------------------------
    Electrostatics                 -0.02318791 [mEh]      -0.01455064 [kcal/mol]      -0.06087986 [kJ/mol]
      Elst10,r                     -0.02318791 [mEh]      -0.01455064 [kcal/mol]      -0.06087986 [kJ/mol]

    Exchange                        0.00000000 [mEh]       0.00000000 [kcal/mol]       0.00000000 [kJ/mol]
      Exch10                        0.00000000 [mEh]       0.00000000 [kcal/mol]       0.00000000 [kJ/mol]
      Exch10(S^2)                   0.00000000 [mEh]       0.00000000 [kcal/mol]       0.00000000 [kJ/mol]

    Induction                       0.00002640 [mEh]       0.00001656 [kcal/mol]       0.00006930 [kJ/mol]
      Ind20,r                      -0.00004569 [mEh]      -0.00002867 [kcal/mol]      -0.00011997 [kJ/mol]
      Exch-Ind20,r                  0.00000000 [mEh]       0.00000000 [kcal/mol]       0.00000000 [kJ/mol]
      delta HF,r (2)                0.00007209 [mEh]       0.00004524 [kcal/mol]       0.00018928 [kJ/mol]

    Dispersion                     -0.00049477 [mEh]      -0.00031047 [kcal/mol]      -0.00129901 [kJ/mol]
      Disp20                       -0.00049477 [mEh]      -0.00031047 [kcal/mol]      -0.00129901 [kJ/mol]
      Exch-Disp20                   0.00000000 [mEh]       0.00000000 [kcal/mol]       0.00000000 [kJ/mol]
      Disp20 (SS)                  -0.00024738 [mEh]      -0.00015523 [kcal/mol]      -0.00064950 [kJ/mol]
      Disp20 (OS)                  -0.00024738 [mEh]      -0.00015523 [kcal/mol]      -0.00064950 [kJ/mol]
      Exch-Disp20 (SS)              0.00000000 [mEh]       0.00000000 [kcal/mol]       0.00000000 [kJ/mol]
      Exch-Disp20 (OS)              0.00000000 [mEh]       0.00000000 [kcal/mol]       0.00000000 [kJ/mol]

  Total HF                         -0.02316152 [mEh]      -0.01453407 [kcal/mol]      -0.06081056 [kJ/mol]
  Total SAPT0                      -0.02365628 [mEh]      -0.01484454 [kcal/mol]      -0.06210956 [kJ/mol]

  Special recipe for scaled SAPT0 (see Manual):
    Electrostatics sSAPT0          -0.02318791 [mEh]      -0.01455064 [kcal/mol]      -0.06087986 [kJ/mol]
    Exchange sSAPT0                 0.00000000 [mEh]       0.00000000 [kcal/mol]       0.00000000 [kJ/mol]
    Induction sSAPT0                0.00002640 [mEh]       0.00001656 [kcal/mol]       0.00006930 [kJ/mol]
    Dispersion sSAPT0              -0.00049477 [mEh]      -0.00031047 [kcal/mol]      -0.00129901 [kJ/mol]
  Total sSAPT0                     -0.02365628 [mEh]      -0.01484454 [kcal/mol]      -0.06210956 [kJ/mol]
  --------------------------------------------------------------------------------------------------------

*** Psi4 exiting successfully. Buy a developer a beer!
