                               Psi4 1.4rc3

  ==> Input File <==

--------------------------------------------------------------------------
# PSI4 file produced by CrystaLattE

# Generated from:               pyrazole.xyz
# Psithon input for N-mer:      2mer-0+8
# Number of atoms per monomer:  [9, 9]
# Number of replicas:           2
# COM priority:                 1.506184718449e-03
# Minimum COM separations:      4.616
# Separation priority:          6.914117220458e-03
# Minimum monomer separations:  2.778
# Cutoff priority:              1.317191696472e-03
# Nuclear repulsion energy:     479.16324589934464

memory 7 GB

molecule Dimer_0_8 {
  N            6.27981210      -4.25303372       0.19313865
  N            6.06870777      -2.28125697       1.80544317
  H            3.66871156      -5.64628941      -1.96684001
  H            0.69034521      -2.37545694      -0.42864236
  H            3.35917442       0.17650601       3.09265017
  H            7.35266782      -1.99461311       2.90680702
  C            3.77952586      -1.21508453       1.76858172
  C            2.38242998      -2.55505538       0.04607681
  C            4.01771468      -4.38410490      -0.88761863
--
  N            6.27981210      -7.53338133       6.59269617
  N            6.06870777      -9.50515808       8.20500069
  H            3.66871156      -6.14012564       4.43271751
  H            0.69034521      -9.41095811       5.97091516
  H            3.35917442     -11.96292106       9.49220769
  H            7.35266782      -9.79180194       9.30636454
  C            3.77952586     -10.57133052       8.16813924
  C            2.38242998      -9.23135967       6.44563434
  C            4.01771468      -7.40231015       5.51193890
units = au
no_com
no_reorient
}

set {
  e_convergence 10
  d_convergence 10
  scf_type df
  mp2_type df
  cc_type df
  freeze_core true
}

energy('sapt0/aug-cc-pvdz')

--------------------------------------------------------------------------

  //              Dimer HF             //
    Molecular point group: c1
  Charge       = 0
  Multiplicity = 1
  Basis Set: AUG-CC-PVDZ
    Blend: AUG-CC-PVDZ
  Basis Set: (AUG-CC-PVDZ AUX)
    Blend: AUG-CC-PVDZ-JKFIT
  @DF-RHF Final Energy:  -449.52529547442094
    Total Energy =                       -449.5252954744210001
  //            Monomer A HF           //
    Molecular point group: c1
  Multiplicity = 1
  Basis Set: AUG-CC-PVDZ
    Blend: AUG-CC-PVDZ
  Basis Set: (AUG-CC-PVDZ AUX)
    Blend: AUG-CC-PVDZ-JKFIT
  @DF-RHF Final Energy:  -224.76317048233221
    Total Energy =                       -224.7631704823322139
  //            Monomer B HF           //
    Molecular point group: c1

    Geometry (in Bohr), charge = 0, multiplicity = 1:

       Center              X                  Y                   Z               Mass
    ------------   -----------------  -----------------  -----------------  -----------------
      Gh(N)           6.279812100000    -4.253033720000     0.193138650000    14.003074004430
      Gh(N)           6.068707770000    -2.281256970000     1.805443170000    14.003074004430
      Gh(H)           3.668711560000    -5.646289410000    -1.966840010000     1.007825032230
      Gh(H)           0.690345210000    -2.375456940000    -0.428642360000     1.007825032230
      Gh(H)           3.359174420000     0.176506010000     3.092650170000     1.007825032230
      Gh(H)           7.352667820000    -1.994613110000     2.906807020000     1.007825032230
      Gh(C)           3.779525860000    -1.215084530000     1.768581720000    12.000000000000
      Gh(C)           2.382429980000    -2.555055380000     0.046076810000    12.000000000000
      Gh(C)           4.017714680000    -4.384104900000    -0.887618630000    12.000000000000
         N            6.279812100000    -7.533381330000     6.592696170000    14.003074004430
         N            6.068707770000    -9.505158080000     8.205000690000    14.003074004430
         H            3.668711560000    -6.140125640000     4.432717510000     1.007825032230
         H            0.690345210000    -9.410958110000     5.970915160000     1.007825032230
         H            3.359174420000   -11.962921060000     9.492207690000     1.007825032230
         H            7.352667820000    -9.791801940000     9.306364540000     1.007825032230
         C            3.779525860000   -10.571330520000     8.168139240000    12.000000000000
         C            2.382429980000    -9.231359670000     6.445634340000    12.000000000000
         C            4.017714680000    -7.402310150000     5.511938900000    12.000000000000

  Charge       = 0
  Multiplicity = 1
  Basis Set: AUG-CC-PVDZ
    Blend: AUG-CC-PVDZ
  Basis Set: (AUG-CC-PVDZ AUX)
    Blend: AUG-CC-PVDZ-JKFIT

    Orbital Energies [Eh]
    ---------------------

    Doubly Occupied:

       1A    -15.636223     2A    -15.592399     3A    -11.279859
       4A    -11.237654     5A    -11.209774     6A     -1.386891
       7A     -1.121850     8A     -1.066874     9A     -0.872761
      10A     -0.837027    11A     -0.757278    12A     -0.645732
      13A     -0.620814    14A     -0.609134    15A     -0.583896
      16A     -0.461358    17A     -0.370707    18A     -0.346039

  @DF-RHF Final Energy:  -224.76280899792442

   => Energetics <=

    Nuclear Repulsion Energy =            166.6240565432921699
    One-Electron Energy =                -633.5011898923708031
    Two-Electron Energy =                 242.1143243511542096
    Total Energy =                       -224.7628089979244237

  Dipole Moment: [D]
     X:    -1.0243      Y:    -1.6068      Z:     1.4738     Total:     2.4090

    SAPT Results
  --------------------------------------------------------------------------------------------------------
    Electrostatics                 -1.60245326 [mEh]      -1.00555460 [kcal/mol]      -4.20724046 [kJ/mol]
      Elst10,r                     -1.60245326 [mEh]      -1.00555460 [kcal/mol]      -4.20724046 [kJ/mol]

    Exchange                        2.88044689 [mEh]       1.80750771 [kcal/mol]       7.56261226 [kJ/mol]
      Exch10                        2.88044689 [mEh]       1.80750771 [kcal/mol]       7.56261226 [kJ/mol]
      Exch10(S^2)                   2.87675900 [mEh]       1.80519353 [kcal/mol]       7.55292971 [kJ/mol]

    Induction                      -0.59398779 [mEh]      -0.37273296 [kcal/mol]      -1.55951472 [kJ/mol]
      Ind20,r                      -0.93283160 [mEh]      -0.58536067 [kcal/mol]      -2.44914904 [kJ/mol]
      Exch-Ind20,r                  0.56160751 [mEh]       0.35241403 [kcal/mol]       1.47450031 [kJ/mol]
      delta HF,r (2)               -0.22276369 [mEh]      -0.13978633 [kcal/mol]      -0.58486599 [kJ/mol]

    Dispersion                     -4.84482592 [mEh]      -3.04017417 [kcal/mol]     -12.72008871 [kJ/mol]
      Disp20                       -5.22863108 [mEh]      -3.28101554 [kcal/mol]     -13.72776900 [kJ/mol]
      Exch-Disp20                   0.38380515 [mEh]       0.24084137 [kcal/mol]       1.00768029 [kJ/mol]
      Disp20 (SS)                  -2.61431554 [mEh]      -1.64050777 [kcal/mol]      -6.86388450 [kJ/mol]
      Disp20 (OS)                  -2.61431554 [mEh]      -1.64050777 [kcal/mol]      -6.86388450 [kJ/mol]
      Exch-Disp20 (SS)              0.24320282 [mEh]       0.15261207 [kcal/mol]       0.63852891 [kJ/mol]
      Exch-Disp20 (OS)              0.14060234 [mEh]       0.08822930 [kcal/mol]       0.36915139 [kJ/mol]

  Total HF                          0.68400584 [mEh]       0.42922014 [kcal/mol]       1.79585707 [kJ/mol]
  Total SAPT0                      -4.16082009 [mEh]      -2.61095402 [kcal/mol]     -10.92423163 [kJ/mol]

  Special recipe for scaled SAPT0 (see Manual):
    Electrostatics sSAPT0          -1.60245326 [mEh]      -1.00555460 [kcal/mol]      -4.20724046 [kJ/mol]
    Exchange sSAPT0                 2.88044689 [mEh]       1.80750771 [kcal/mol]       7.56261226 [kJ/mol]
    Induction sSAPT0               -0.59182514 [mEh]      -0.37137588 [kcal/mol]      -1.55383670 [kJ/mol]
    Dispersion sSAPT0              -4.84334796 [mEh]      -3.03924673 [kcal/mol]     -12.71620832 [kJ/mol]
  Total sSAPT0                     -4.15717948 [mEh]      -2.60866951 [kcal/mol]     -10.91467323 [kJ/mol]
  --------------------------------------------------------------------------------------------------------

*** Psi4 exiting successfully. Buy a developer a beer!
