                               Psi4 1.4rc3

  ==> Input File <==

--------------------------------------------------------------------------
# PSI4 file produced by CrystaLattE

# Generated from:               pyrazole.xyz
# Psithon input for N-mer:      2mer-0+106
# Number of atoms per monomer:  [9, 9]
# Number of replicas:           2
# COM priority:                 6.129245124161e-05
# Minimum COM separations:      13.421
# Separation priority:          9.818426070937e-05
# Minimum monomer separations:  11.471
# Cutoff priority:              4.529558077739e-06
# Nuclear repulsion energy:     384.1648326587062

memory 7 GB

molecule Dimer_0_106 {
  N            6.27981210      -4.25303372       0.19313865
  N            6.06870777      -2.28125697       1.80544317
  H            3.66871156      -5.64628941      -1.96684001
  H            0.69034521      -2.37545694      -0.42864236
  H            3.35917442       0.17650601       3.09265017
  H            7.35266782      -1.99461311       2.90680702
  C            3.77952586      -1.21508453       1.76858172
  C            2.38242998      -2.55505538       0.04607681
  C            4.01771468      -4.38410490      -0.88761863
--
  N           -9.19704487      -7.53338133      19.39181122
  N           -9.40814920      -9.50515808      21.00411574
  H          -11.80814541      -6.14012564      17.23183256
  H          -14.78651176      -9.41095811      18.77003021
  H          -12.11768255     -11.96292106      22.29132274
  H           -8.12418914      -9.79180194      22.10547959
  C          -11.69733111     -10.57133052      20.96725429
  C          -13.09442699      -9.23135967      19.24474939
  C          -11.45914228      -7.40231015      18.31105394
units = au
no_com
no_reorient
}

set {
  e_convergence 10
  d_convergence 10
  scf_type df
  mp2_type df
  cc_type df
  freeze_core true
}

energy('sapt0/aug-cc-pvdz')

--------------------------------------------------------------------------

  //              Dimer HF             //
    Molecular point group: c1
  Charge       = 0
  Multiplicity = 1
  Basis Set: AUG-CC-PVDZ
    Blend: AUG-CC-PVDZ
  Basis Set: (AUG-CC-PVDZ AUX)
    Blend: AUG-CC-PVDZ-JKFIT
  @DF-RHF Final Energy:  -449.52473121095915
    Total Energy =                       -449.5247312109592031
  //            Monomer A HF           //
    Molecular point group: c1
  Multiplicity = 1
  Basis Set: AUG-CC-PVDZ
    Blend: AUG-CC-PVDZ
  Basis Set: (AUG-CC-PVDZ AUX)
    Blend: AUG-CC-PVDZ-JKFIT
  @DF-RHF Final Energy:  -224.76233958770592
    Total Energy =                       -224.7623395877059238
  //            Monomer B HF           //
    Molecular point group: c1

    Geometry (in Bohr), charge = 0, multiplicity = 1:

       Center              X                  Y                   Z               Mass
    ------------   -----------------  -----------------  -----------------  -----------------
      Gh(N)           6.279812100000    -4.253033720000     0.193138650000    14.003074004430
      Gh(N)           6.068707770000    -2.281256970000     1.805443170000    14.003074004430
      Gh(H)           3.668711560000    -5.646289410000    -1.966840010000     1.007825032230
      Gh(H)           0.690345210000    -2.375456940000    -0.428642360000     1.007825032230
      Gh(H)           3.359174420000     0.176506010000     3.092650170000     1.007825032230
      Gh(H)           7.352667820000    -1.994613110000     2.906807020000     1.007825032230
      Gh(C)           3.779525860000    -1.215084530000     1.768581720000    12.000000000000
      Gh(C)           2.382429980000    -2.555055380000     0.046076810000    12.000000000000
      Gh(C)           4.017714680000    -4.384104900000    -0.887618630000    12.000000000000
         N           -9.197044870000    -7.533381330000    19.391811220000    14.003074004430
         N           -9.408149200000    -9.505158080000    21.004115740000    14.003074004430
         H          -11.808145410000    -6.140125640000    17.231832560000     1.007825032230
         H          -14.786511760000    -9.410958110000    18.770030210000     1.007825032230
         H          -12.117682550000   -11.962921060000    22.291322740000     1.007825032230
         H           -8.124189140000    -9.791801940000    22.105479590000     1.007825032230
         C          -11.697331110000   -10.571330520000    20.967254290000    12.000000000000
         C          -13.094426990000    -9.231359670000    19.244749390000    12.000000000000
         C          -11.459142280000    -7.402310150000    18.311053940000    12.000000000000

  Charge       = 0
  Multiplicity = 1
  Basis Set: AUG-CC-PVDZ
    Blend: AUG-CC-PVDZ
  Basis Set: (AUG-CC-PVDZ AUX)
    Blend: AUG-CC-PVDZ-JKFIT

    Orbital Energies [Eh]
    ---------------------

    Doubly Occupied:

       1A    -15.636223     2A    -15.592313     3A    -11.279894
       4A    -11.237784     5A    -11.209891     6A     -1.386922
       7A     -1.121901     8A     -1.066898     9A     -0.872768
      10A     -0.837061    11A     -0.757292    12A     -0.645746
      13A     -0.620834    14A     -0.609140    15A     -0.583920
      16A     -0.461404    17A     -0.370721    18A     -0.346047

  @DF-RHF Final Energy:  -224.76233962039120

   => Energetics <=

    Nuclear Repulsion Energy =            166.6240564818921825
    One-Electron Energy =                -633.4992746441648706
    Two-Electron Energy =                 242.1128785418814857
    Total Energy =                       -224.7623396203912023

  Dipole Moment: [D]
     X:    -1.0235      Y:    -1.6055      Z:     1.4733     Total:     2.4075

    SAPT Results
  --------------------------------------------------------------------------------------------------------
    Electrostatics                 -0.05174949 [mEh]      -0.03247330 [kcal/mol]      -0.13586828 [kJ/mol]
      Elst10,r                     -0.05174949 [mEh]      -0.03247330 [kcal/mol]      -0.13586828 [kJ/mol]

    Exchange                        0.00000024 [mEh]       0.00000015 [kcal/mol]       0.00000063 [kJ/mol]
      Exch10                        0.00000024 [mEh]       0.00000015 [kcal/mol]       0.00000063 [kJ/mol]
      Exch10(S^2)                   0.00000024 [mEh]       0.00000015 [kcal/mol]       0.00000063 [kJ/mol]

    Induction                      -0.00025361 [mEh]      -0.00015914 [kcal/mol]      -0.00066585 [kJ/mol]
      Ind20,r                      -0.00039459 [mEh]      -0.00024761 [kcal/mol]      -0.00103599 [kJ/mol]
      Exch-Ind20,r                  0.00000036 [mEh]       0.00000023 [kcal/mol]       0.00000094 [kJ/mol]
      delta HF,r (2)                0.00014062 [mEh]       0.00008824 [kcal/mol]       0.00036920 [kJ/mol]

    Dispersion                     -0.00425014 [mEh]      -0.00266700 [kcal/mol]      -0.01115874 [kJ/mol]
      Disp20                       -0.00425016 [mEh]      -0.00266701 [kcal/mol]      -0.01115878 [kJ/mol]
      Exch-Disp20                   0.00000001 [mEh]       0.00000001 [kcal/mol]       0.00000004 [kJ/mol]
      Disp20 (SS)                  -0.00212508 [mEh]      -0.00133351 [kcal/mol]      -0.00557939 [kJ/mol]
      Disp20 (OS)                  -0.00212508 [mEh]      -0.00133351 [kcal/mol]      -0.00557939 [kJ/mol]
      Exch-Disp20 (SS)              0.00000001 [mEh]       0.00000001 [kcal/mol]       0.00000003 [kJ/mol]
      Exch-Disp20 (OS)              0.00000000 [mEh]       0.00000000 [kcal/mol]       0.00000001 [kJ/mol]

  Total HF                         -0.05200286 [mEh]      -0.03263229 [kcal/mol]      -0.13653350 [kJ/mol]
  Total SAPT0                      -0.05625300 [mEh]      -0.03529929 [kcal/mol]      -0.14769224 [kJ/mol]

  Special recipe for scaled SAPT0 (see Manual):
    Electrostatics sSAPT0          -0.05174949 [mEh]      -0.03247330 [kcal/mol]      -0.13586828 [kJ/mol]
    Exchange sSAPT0                 0.00000024 [mEh]       0.00000015 [kcal/mol]       0.00000063 [kJ/mol]
    Induction sSAPT0               -0.00025361 [mEh]      -0.00015914 [kcal/mol]      -0.00066585 [kJ/mol]
    Dispersion sSAPT0              -0.00425014 [mEh]      -0.00266700 [kcal/mol]      -0.01115874 [kJ/mol]
  Total sSAPT0                     -0.05625300 [mEh]      -0.03529929 [kcal/mol]      -0.14769224 [kJ/mol]
  --------------------------------------------------------------------------------------------------------

*** Psi4 exiting successfully. Buy a developer a beer!
