                               Psi4 1.4rc3

  ==> Input File <==

--------------------------------------------------------------------------
# PSI4 file produced by CrystaLattE

# Generated from:               pyrazole.xyz
# Psithon input for N-mer:      2mer-0+101
# Number of atoms per monomer:  [9, 9]
# Number of replicas:           2
# COM priority:                 6.510968607746e-05
# Minimum COM separations:      13.154
# Separation priority:          1.109996811273e-04
# Minimum monomer separations:  11.011
# Cutoff priority:              5.334523609502e-06
# Nuclear repulsion energy:     385.22015252332045

memory 7 GB

molecule Dimer_0_101 {
  N            6.27981210      -4.25303372       0.19313865
  N            6.06870777      -2.28125697       1.80544317
  H            3.66871156      -5.64628941      -1.96684001
  H            0.69034521      -2.37545694      -0.42864236
  H            3.35917442       0.17650601       3.09265017
  H            7.35266782      -1.99461311       2.90680702
  C            3.77952586      -1.21508453       1.76858172
  C            2.38242998      -2.55505538       0.04607681
  C            4.01771468      -4.38410490      -0.88761863
--
  N           14.01824058       7.64090252     -19.34573440
  N           13.80713625       9.61267926     -20.95803893
  H           11.40714004       6.24764682     -17.18575575
  H            8.42877369       9.51847929     -18.72395339
  H           11.09760290      12.07044225     -22.24524593
  H           15.09109631       9.89932313     -22.05940278
  C           11.51795434      10.67885171     -20.92117747
  C           10.12085846       9.33888085     -19.19867257
  C           11.75614317       7.50983134     -18.26497713
units = au
no_com
no_reorient
}

set {
  e_convergence 10
  d_convergence 10
  scf_type df
  mp2_type df
  cc_type df
  freeze_core true
}

energy('sapt0/aug-cc-pvdz')

--------------------------------------------------------------------------

  //              Dimer HF             //
    Molecular point group: c1
  Charge       = 0
  Multiplicity = 1
  Basis Set: AUG-CC-PVDZ
    Blend: AUG-CC-PVDZ
  Basis Set: (AUG-CC-PVDZ AUX)
    Blend: AUG-CC-PVDZ-JKFIT
  @DF-RHF Final Energy:  -449.52464166144705
    Total Energy =                       -449.5246416614470490
  //            Monomer A HF           //
    Molecular point group: c1
  Multiplicity = 1
  Basis Set: AUG-CC-PVDZ
    Blend: AUG-CC-PVDZ
  Basis Set: (AUG-CC-PVDZ AUX)
    Blend: AUG-CC-PVDZ-JKFIT
  @DF-RHF Final Energy:  -224.76233990722471
    Total Energy =                       -224.7623399072247139
  //            Monomer B HF           //
    Molecular point group: c1

    Geometry (in Bohr), charge = 0, multiplicity = 1:

       Center              X                  Y                   Z               Mass
    ------------   -----------------  -----------------  -----------------  -----------------
      Gh(N)           6.279812100000    -4.253033720000     0.193138650000    14.003074004430
      Gh(N)           6.068707770000    -2.281256970000     1.805443170000    14.003074004430
      Gh(H)           3.668711560000    -5.646289410000    -1.966840010000     1.007825032230
      Gh(H)           0.690345210000    -2.375456940000    -0.428642360000     1.007825032230
      Gh(H)           3.359174420000     0.176506010000     3.092650170000     1.007825032230
      Gh(H)           7.352667820000    -1.994613110000     2.906807020000     1.007825032230
      Gh(C)           3.779525860000    -1.215084530000     1.768581720000    12.000000000000
      Gh(C)           2.382429980000    -2.555055380000     0.046076810000    12.000000000000
      Gh(C)           4.017714680000    -4.384104900000    -0.887618630000    12.000000000000
         N           14.018240580000     7.640902520000   -19.345734400000    14.003074004430
         N           13.807136250000     9.612679260000   -20.958038930000    14.003074004430
         H           11.407140040000     6.247646820000   -17.185755750000     1.007825032230
         H            8.428773690000     9.518479290000   -18.723953390000     1.007825032230
         H           11.097602900000    12.070442250000   -22.245245930000     1.007825032230
         H           15.091096310000     9.899323130000   -22.059402780000     1.007825032230
         C           11.517954340000    10.678851710000   -20.921177470000    12.000000000000
         C           10.120858460000     9.338880850000   -19.198672570000    12.000000000000
         C           11.756143170000     7.509831340000   -18.264977130000    12.000000000000

  Charge       = 0
  Multiplicity = 1
  Basis Set: AUG-CC-PVDZ
    Blend: AUG-CC-PVDZ
  Basis Set: (AUG-CC-PVDZ AUX)
    Blend: AUG-CC-PVDZ-JKFIT

    Orbital Energies [Eh]
    ---------------------

    Doubly Occupied:

       1A    -15.636223     2A    -15.592313     3A    -11.279894
       4A    -11.237784     5A    -11.209891     6A     -1.386922
       7A     -1.121901     8A     -1.066898     9A     -0.872768
      10A     -0.837061    11A     -0.757292    12A     -0.645746
      13A     -0.620834    14A     -0.609140    15A     -0.583920
      16A     -0.461404    17A     -0.370721    18A     -0.346047

  @DF-RHF Final Energy:  -224.76233966600992

   => Energetics <=

    Nuclear Repulsion Energy =            166.6240565044893174
    One-Electron Energy =                -633.4992748233391922
    Two-Electron Energy =                 242.1128786528399530
    Total Energy =                       -224.7623396660099218

  Dipole Moment: [D]
     X:    -1.0235      Y:     1.6055      Z:    -1.4733     Total:     2.4075

    SAPT Results
  --------------------------------------------------------------------------------------------------------
    Electrostatics                  0.03803488 [mEh]       0.02386725 [kcal/mol]       0.09986056 [kJ/mol]
      Elst10,r                      0.03803488 [mEh]       0.02386725 [kcal/mol]       0.09986056 [kJ/mol]

    Exchange                        0.00000077 [mEh]       0.00000048 [kcal/mol]       0.00000202 [kJ/mol]
      Exch10                        0.00000077 [mEh]       0.00000048 [kcal/mol]       0.00000202 [kJ/mol]
      Exch10(S^2)                   0.00000077 [mEh]       0.00000048 [kcal/mol]       0.00000202 [kJ/mol]

    Induction                      -0.00012386 [mEh]      -0.00007772 [kcal/mol]      -0.00032519 [kJ/mol]
      Ind20,r                      -0.00026234 [mEh]      -0.00016462 [kcal/mol]      -0.00068877 [kJ/mol]
      Exch-Ind20,r                  0.00000115 [mEh]       0.00000072 [kcal/mol]       0.00000301 [kJ/mol]
      delta HF,r (2)                0.00013733 [mEh]       0.00008618 [kcal/mol]       0.00036057 [kJ/mol]

    Dispersion                     -0.00491335 [mEh]      -0.00308317 [kcal/mol]      -0.01289999 [kJ/mol]
      Disp20                       -0.00491339 [mEh]      -0.00308320 [kcal/mol]      -0.01290012 [kJ/mol]
      Exch-Disp20                   0.00000005 [mEh]       0.00000003 [kcal/mol]       0.00000012 [kJ/mol]
      Disp20 (SS)                  -0.00245670 [mEh]      -0.00154160 [kcal/mol]      -0.00645006 [kJ/mol]
      Disp20 (OS)                  -0.00245670 [mEh]      -0.00154160 [kcal/mol]      -0.00645006 [kJ/mol]
      Exch-Disp20 (SS)              0.00000004 [mEh]       0.00000002 [kcal/mol]       0.00000010 [kJ/mol]
      Exch-Disp20 (OS)              0.00000001 [mEh]       0.00000001 [kcal/mol]       0.00000003 [kJ/mol]

  Total HF                          0.03791179 [mEh]       0.02379001 [kcal/mol]       0.09953738 [kJ/mol]
  Total SAPT0                       0.03299844 [mEh]       0.02070683 [kcal/mol]       0.08663739 [kJ/mol]

  Special recipe for scaled SAPT0 (see Manual):
    Electrostatics sSAPT0           0.03803488 [mEh]       0.02386725 [kcal/mol]       0.09986056 [kJ/mol]
    Exchange sSAPT0                 0.00000077 [mEh]       0.00000048 [kcal/mol]       0.00000202 [kJ/mol]
    Induction sSAPT0               -0.00012386 [mEh]      -0.00007772 [kcal/mol]      -0.00032519 [kJ/mol]
    Dispersion sSAPT0              -0.00491335 [mEh]      -0.00308317 [kcal/mol]      -0.01289999 [kJ/mol]
  Total sSAPT0                      0.03299844 [mEh]       0.02070683 [kcal/mol]       0.08663739 [kJ/mol]
  --------------------------------------------------------------------------------------------------------

*** Psi4 exiting successfully. Buy a developer a beer!
