                               Psi4 1.4rc3

  ==> Input File <==

--------------------------------------------------------------------------
# PSI4 file produced by CrystaLattE

# Generated from:               pyrazole.xyz
# Psithon input for N-mer:      2mer-0+132
# Number of atoms per monomer:  [9, 9]
# Number of replicas:           1
# COM priority:                 2.906787686750e-05
# Minimum COM separations:      17.211
# Separation priority:          5.873809466243e-05
# Minimum monomer separations:  13.613
# Cutoff priority:              2.283283332686e-06
# Nuclear repulsion energy:     373.23217862658214

memory 7 GB

molecule Dimer_0_132 {
  N            6.27981210      -4.25303372       0.19313865
  N            6.06870777      -2.28125697       1.80544317
  H            3.66871156      -5.64628941      -1.96684001
  H            0.69034521      -2.37545694      -0.42864236
  H            3.35917442       0.17650601       3.09265017
  H            7.35266782      -1.99461311       2.90680702
  C            3.77952586      -1.21508453       1.76858172
  C            2.38242998      -2.55505538       0.04607681
  C            4.01771468      -4.38410490      -0.88761863
--
  N          -20.41714710      14.29484620     -14.34089645
  N          -20.29828483      16.33275324     -12.80372273
  H          -17.74398436      11.89393623     -15.05892680
  H          -14.84934780      14.33647498     -12.30378930
  H          -17.78577187      18.04952399     -10.39915299
  H          -21.76069305      17.14273029     -12.41795740
  C          -18.01544843      16.66292891     -11.77467388
  C          -16.53245600      14.73325669     -12.66459635
  C          -18.09376133      13.34808888     -14.25629430
units = au
no_com
no_reorient
}

set {
  e_convergence 10
  d_convergence 10
  scf_type df
  mp2_type df
  cc_type df
  freeze_core true
}

energy('sapt0/aug-cc-pvdz')

--------------------------------------------------------------------------

  //              Dimer HF             //
    Molecular point group: c1
  Charge       = 0
  Multiplicity = 1
  Basis Set: AUG-CC-PVDZ
    Blend: AUG-CC-PVDZ
  Basis Set: (AUG-CC-PVDZ AUX)
    Blend: AUG-CC-PVDZ-JKFIT
  @DF-RHF Final Energy:  -449.52476135038398
    Total Energy =                       -449.5247613503839830
  //            Monomer A HF           //
    Molecular point group: c1
  Multiplicity = 1
  Basis Set: AUG-CC-PVDZ
    Blend: AUG-CC-PVDZ
  Basis Set: (AUG-CC-PVDZ AUX)
    Blend: AUG-CC-PVDZ-JKFIT
  @DF-RHF Final Energy:  -224.76233952246608
    Total Energy =                       -224.7623395224660783
  //            Monomer B HF           //
    Molecular point group: c1

    Geometry (in Bohr), charge = 0, multiplicity = 1:

       Center              X                  Y                   Z               Mass
    ------------   -----------------  -----------------  -----------------  -----------------
      Gh(N)           6.279812100000    -4.253033720000     0.193138650000    14.003074004430
      Gh(N)           6.068707770000    -2.281256970000     1.805443170000    14.003074004430
      Gh(H)           3.668711560000    -5.646289410000    -1.966840010000     1.007825032230
      Gh(H)           0.690345210000    -2.375456940000    -0.428642360000     1.007825032230
      Gh(H)           3.359174420000     0.176506010000     3.092650170000     1.007825032230
      Gh(H)           7.352667820000    -1.994613110000     2.906807020000     1.007825032230
      Gh(C)           3.779525860000    -1.215084530000     1.768581720000    12.000000000000
      Gh(C)           2.382429980000    -2.555055380000     0.046076810000    12.000000000000
      Gh(C)           4.017714680000    -4.384104900000    -0.887618630000    12.000000000000
         N          -20.417147100000    14.294846200000   -14.340896450000    14.003074004430
         N          -20.298284830000    16.332753240000   -12.803722730000    14.003074004430
         H          -17.743984360000    11.893936230000   -15.058926800000     1.007825032230
         H          -14.849347800000    14.336474980000   -12.303789300000     1.007825032230
         H          -17.785771870000    18.049523990000   -10.399152990000     1.007825032230
         H          -21.760693050000    17.142730290000   -12.417957400000     1.007825032230
         C          -18.015448430000    16.662928910000   -11.774673880000    12.000000000000
         C          -16.532456000000    14.733256690000   -12.664596350000    12.000000000000
         C          -18.093761330000    13.348088880000   -14.256294300000    12.000000000000

  Charge       = 0
  Multiplicity = 1
  Basis Set: AUG-CC-PVDZ
    Blend: AUG-CC-PVDZ
  Basis Set: (AUG-CC-PVDZ AUX)
    Blend: AUG-CC-PVDZ-JKFIT

    Orbital Energies [Eh]
    ---------------------

    Doubly Occupied:

       1A    -15.636233     2A    -15.592291     3A    -11.279903
       4A    -11.237759     5A    -11.209884     6A     -1.387001
       7A     -1.121894     8A     -1.066928     9A     -0.872759
      10A     -0.837039    11A     -0.757272    12A     -0.645745
      13A     -0.620828    14A     -0.609177    15A     -0.583905
      16A     -0.461413    17A     -0.370715    18A     -0.346055

  @DF-RHF Final Energy:  -224.76243506300978

   => Energetics <=

    Nuclear Repulsion Energy =            166.6286027547979529
    One-Electron Energy =                -633.5084733123322849
    Two-Electron Energy =                 242.1174354945245568
    Total Energy =                       -224.7624350630097751

  Dipole Moment: [D]
     X:     0.7394      Y:     1.4336      Z:     1.7871     Total:     2.4074

    SAPT Results
  --------------------------------------------------------------------------------------------------------
    Electrostatics                  0.01316247 [mEh]       0.00825957 [kcal/mol]       0.03455806 [kJ/mol]
      Elst10,r                      0.01316247 [mEh]       0.00825957 [kcal/mol]       0.03455806 [kJ/mol]

    Exchange                        0.00000000 [mEh]       0.00000000 [kcal/mol]       0.00000001 [kJ/mol]
      Exch10                        0.00000000 [mEh]       0.00000000 [kcal/mol]       0.00000001 [kJ/mol]
      Exch10(S^2)                   0.00000000 [mEh]       0.00000000 [kcal/mol]       0.00000001 [kJ/mol]

    Induction                       0.00007262 [mEh]       0.00004557 [kcal/mol]       0.00019066 [kJ/mol]
      Ind20,r                      -0.00003101 [mEh]      -0.00001946 [kcal/mol]      -0.00008142 [kJ/mol]
      Exch-Ind20,r                  0.00000000 [mEh]       0.00000000 [kcal/mol]       0.00000001 [kJ/mol]
      delta HF,r (2)                0.00010363 [mEh]       0.00006503 [kcal/mol]       0.00027207 [kJ/mol]

    Dispersion                     -0.00112302 [mEh]      -0.00070471 [kcal/mol]      -0.00294849 [kJ/mol]
      Disp20                       -0.00112302 [mEh]      -0.00070471 [kcal/mol]      -0.00294850 [kJ/mol]
      Exch-Disp20                   0.00000000 [mEh]       0.00000000 [kcal/mol]       0.00000000 [kJ/mol]
      Disp20 (SS)                  -0.00056151 [mEh]      -0.00035235 [kcal/mol]      -0.00147425 [kJ/mol]
      Disp20 (OS)                  -0.00056151 [mEh]      -0.00035235 [kcal/mol]      -0.00147425 [kJ/mol]
      Exch-Disp20 (SS)              0.00000000 [mEh]       0.00000000 [kcal/mol]       0.00000000 [kJ/mol]
      Exch-Disp20 (OS)              0.00000000 [mEh]       0.00000000 [kcal/mol]       0.00000000 [kJ/mol]

  Total HF                          0.01323509 [mEh]       0.00830515 [kcal/mol]       0.03474873 [kJ/mol]
  Total SAPT0                       0.01211207 [mEh]       0.00760044 [kcal/mol]       0.03180023 [kJ/mol]

  Special recipe for scaled SAPT0 (see Manual):
    Electrostatics sSAPT0           0.01316247 [mEh]       0.00825957 [kcal/mol]       0.03455806 [kJ/mol]
    Exchange sSAPT0                 0.00000000 [mEh]       0.00000000 [kcal/mol]       0.00000001 [kJ/mol]
    Induction sSAPT0                0.00007262 [mEh]       0.00004557 [kcal/mol]       0.00019066 [kJ/mol]
    Dispersion sSAPT0              -0.00112302 [mEh]      -0.00070471 [kcal/mol]      -0.00294849 [kJ/mol]
  Total sSAPT0                      0.01211207 [mEh]       0.00760044 [kcal/mol]       0.03180023 [kJ/mol]
  --------------------------------------------------------------------------------------------------------

*** Psi4 exiting successfully. Buy a developer a beer!
