                               Psi4 1.4rc3

  ==> Input File <==

--------------------------------------------------------------------------
# PSI4 file produced by CrystaLattE

# Generated from:               pyrazole.xyz
# Psithon input for N-mer:      2mer-0+309
# Number of atoms per monomer:  [9, 9]
# Number of replicas:           2
# COM priority:                 2.343451354106e-05
# Minimum COM separations:      18.492
# Separation priority:          2.653179412402e-05
# Minimum monomer separations:  17.742
# Cutoff priority:              7.913261026559e-07
# Nuclear repulsion energy:     370.18062051543103

memory 7 GB

molecule Dimer_0_309 {
  N            6.27981210      -4.25303372       0.19313865
  N            6.06870777      -2.28125697       1.80544317
  H            3.66871156      -5.64628941      -1.96684001
  H            0.69034521      -2.37545694      -0.42864236
  H            3.35917442       0.17650601       3.09265017
  H            7.35266782      -1.99461311       2.90680702
  C            3.77952586      -1.21508453       1.76858172
  C            2.38242998      -2.55505538       0.04607681
  C            4.01771468      -4.38410490      -0.88761863
--
  N            6.27981210      19.53483875     -25.40509145
  N            6.06870777      21.50661550     -23.79278693
  H            3.66871156      18.14158306     -27.56507010
  H            0.69034521      21.41241552     -26.02687246
  H            3.35917442      23.96437848     -22.50557993
  H            7.35266782      21.79325936     -22.69142308
  C            3.77952586      22.57278794     -23.82964838
  C            2.38242998      21.23281709     -25.55215328
  C            4.01771468      19.40376757     -26.48584872
units = au
no_com
no_reorient
}

set {
  e_convergence 10
  d_convergence 10
  scf_type df
  mp2_type df
  cc_type df
  freeze_core true
}

energy('sapt0/aug-cc-pvdz')

--------------------------------------------------------------------------

  //              Dimer HF             //
    Molecular point group: c1
  Charge       = 0
  Multiplicity = 1
  Basis Set: AUG-CC-PVDZ
    Blend: AUG-CC-PVDZ
  Basis Set: (AUG-CC-PVDZ AUX)
    Blend: AUG-CC-PVDZ-JKFIT
  @DF-RHF Final Energy:  -449.52465678966382
    Total Energy =                       -449.5246567896638226
  //            Monomer A HF           //
    Molecular point group: c1
  Multiplicity = 1
  Basis Set: AUG-CC-PVDZ
    Blend: AUG-CC-PVDZ
  Basis Set: (AUG-CC-PVDZ AUX)
    Blend: AUG-CC-PVDZ-JKFIT
  @DF-RHF Final Energy:  -224.76233952331097
    Total Energy =                       -224.7623395233109704
  //            Monomer B HF           //
    Molecular point group: c1

    Geometry (in Bohr), charge = 0, multiplicity = 1:

       Center              X                  Y                   Z               Mass
    ------------   -----------------  -----------------  -----------------  -----------------
      Gh(N)           6.279812100000    -4.253033720000     0.193138650000    14.003074004430
      Gh(N)           6.068707770000    -2.281256970000     1.805443170000    14.003074004430
      Gh(H)           3.668711560000    -5.646289410000    -1.966840010000     1.007825032230
      Gh(H)           0.690345210000    -2.375456940000    -0.428642360000     1.007825032230
      Gh(H)           3.359174420000     0.176506010000     3.092650170000     1.007825032230
      Gh(H)           7.352667820000    -1.994613110000     2.906807020000     1.007825032230
      Gh(C)           3.779525860000    -1.215084530000     1.768581720000    12.000000000000
      Gh(C)           2.382429980000    -2.555055380000     0.046076810000    12.000000000000
      Gh(C)           4.017714680000    -4.384104900000    -0.887618630000    12.000000000000
         N            6.279812100000    19.534838750000   -25.405091450000    14.003074004430
         N            6.068707770000    21.506615500000   -23.792786930000    14.003074004430
         H            3.668711560000    18.141583060000   -27.565070100000     1.007825032230
         H            0.690345210000    21.412415520000   -26.026872460000     1.007825032230
         H            3.359174420000    23.964378480000   -22.505579930000     1.007825032230
         H            7.352667820000    21.793259360000   -22.691423080000     1.007825032230
         C            3.779525860000    22.572787940000   -23.829648380000    12.000000000000
         C            2.382429980000    21.232817090000   -25.552153280000    12.000000000000
         C            4.017714680000    19.403767570000   -26.485848720000    12.000000000000

  Charge       = 0
  Multiplicity = 1
  Basis Set: AUG-CC-PVDZ
    Blend: AUG-CC-PVDZ
  Basis Set: (AUG-CC-PVDZ AUX)
    Blend: AUG-CC-PVDZ-JKFIT

    Orbital Energies [Eh]
    ---------------------

    Doubly Occupied:

       1A    -15.636223     2A    -15.592313     3A    -11.279894
       4A    -11.237784     5A    -11.209891     6A     -1.386922
       7A     -1.121901     8A     -1.066898     9A     -0.872768
      10A     -0.837061    11A     -0.757292    12A     -0.645746
      13A     -0.620834    14A     -0.609140    15A     -0.583920
      16A     -0.461404    17A     -0.370721    18A     -0.346048

  @DF-RHF Final Energy:  -224.76233952234776

   => Energetics <=

    Nuclear Repulsion Energy =            166.6240565682574868
    One-Electron Energy =                -633.4992736235451503
    Two-Electron Energy =                 242.1128775329398763
    Total Energy =                       -224.7623395223477587

  Dipole Moment: [D]
     X:    -1.0235      Y:     1.6055      Z:     1.4733     Total:     2.4075

    SAPT Results
  --------------------------------------------------------------------------------------------------------
    Electrostatics                  0.02221292 [mEh]       0.01393882 [kcal/mol]       0.05832001 [kJ/mol]
      Elst10,r                      0.02221292 [mEh]       0.01393882 [kcal/mol]       0.05832001 [kJ/mol]

    Exchange                        0.00000000 [mEh]       0.00000000 [kcal/mol]       0.00000000 [kJ/mol]
      Exch10                        0.00000000 [mEh]       0.00000000 [kcal/mol]       0.00000000 [kJ/mol]
      Exch10(S^2)                   0.00000000 [mEh]       0.00000000 [kcal/mol]       0.00000000 [kJ/mol]

    Induction                       0.00004308 [mEh]       0.00002703 [kcal/mol]       0.00011310 [kJ/mol]
      Ind20,r                      -0.00002636 [mEh]      -0.00001654 [kcal/mol]      -0.00006921 [kJ/mol]
      Exch-Ind20,r                  0.00000000 [mEh]       0.00000000 [kcal/mol]       0.00000000 [kJ/mol]
      delta HF,r (2)                0.00006944 [mEh]       0.00004357 [kcal/mol]       0.00018231 [kJ/mol]

    Dispersion                     -0.00052716 [mEh]      -0.00033080 [kcal/mol]      -0.00138406 [kJ/mol]
      Disp20                       -0.00052716 [mEh]      -0.00033080 [kcal/mol]      -0.00138406 [kJ/mol]
      Exch-Disp20                   0.00000000 [mEh]       0.00000000 [kcal/mol]       0.00000000 [kJ/mol]
      Disp20 (SS)                  -0.00026358 [mEh]      -0.00016540 [kcal/mol]      -0.00069203 [kJ/mol]
      Disp20 (OS)                  -0.00026358 [mEh]      -0.00016540 [kcal/mol]      -0.00069203 [kJ/mol]
      Exch-Disp20 (SS)              0.00000000 [mEh]       0.00000000 [kcal/mol]       0.00000000 [kJ/mol]
      Exch-Disp20 (OS)              0.00000000 [mEh]       0.00000000 [kcal/mol]       0.00000000 [kJ/mol]

  Total HF                          0.02225599 [mEh]       0.01396585 [kcal/mol]       0.05843311 [kJ/mol]
  Total SAPT0                       0.02172883 [mEh]       0.01363505 [kcal/mol]       0.05704905 [kJ/mol]

  Special recipe for scaled SAPT0 (see Manual):
    Electrostatics sSAPT0           0.02221292 [mEh]       0.01393882 [kcal/mol]       0.05832001 [kJ/mol]
    Exchange sSAPT0                 0.00000000 [mEh]       0.00000000 [kcal/mol]       0.00000000 [kJ/mol]
    Induction sSAPT0                0.00004308 [mEh]       0.00002703 [kcal/mol]       0.00011310 [kJ/mol]
    Dispersion sSAPT0              -0.00052716 [mEh]      -0.00033080 [kcal/mol]      -0.00138406 [kJ/mol]
  Total sSAPT0                      0.02172883 [mEh]       0.01363505 [kcal/mol]       0.05704905 [kJ/mol]
  --------------------------------------------------------------------------------------------------------

*** Psi4 exiting successfully. Buy a developer a beer!
