                               Psi4 1.4rc3

  ==> Input File <==

--------------------------------------------------------------------------
# PSI4 file produced by CrystaLattE

# Generated from:               pyrazole.xyz
# Psithon input for N-mer:      2mer-0+61
# Number of atoms per monomer:  [9, 9]
# Number of replicas:           1
# COM priority:                 1.379731703140e-04
# Minimum COM separations:      10.241
# Separation priority:          4.183404333815e-04
# Minimum monomer separations:  7.076
# Cutoff priority:              3.128766281727e-05
# Nuclear repulsion energy:     400.28827801690835

memory 7 GB

molecule Dimer_0_61 {
  N            6.27981210      -4.25303372       0.19313865
  N            6.06870777      -2.28125697       1.80544317
  H            3.66871156      -5.64628941      -1.96684001
  H            0.69034521      -2.37545694      -0.42864236
  H            3.35917442       0.17650601       3.09265017
  H            7.35266782      -1.99461311       2.90680702
  C            3.77952586      -1.21508453       1.76858172
  C            2.38242998      -2.55505538       0.04607681
  C            4.01771468      -4.38410490      -0.88761863
--
  N           18.27499532       9.60054745       1.58785821
  N           18.39385758       7.56264041       0.05068450
  H           20.94815806      12.00145742       2.30588857
  H           23.84279462       9.55891867      -0.44924894
  H           20.90637054       5.84586966      -2.35388525
  H           16.93144937       6.75266336      -0.33508083
  C           20.67669399       7.23246474      -0.97836435
  C           22.15968642       9.16213696      -0.08844188
  C           20.59838109      10.54730477       1.50325606
units = au
no_com
no_reorient
}

set {
  e_convergence 10
  d_convergence 10
  scf_type df
  mp2_type df
  cc_type df
  freeze_core true
}

energy('sapt0/aug-cc-pvdz')

--------------------------------------------------------------------------

  //              Dimer HF             //
    Molecular point group: c1
  Charge       = 0
  Multiplicity = 1
  Basis Set: AUG-CC-PVDZ
    Blend: AUG-CC-PVDZ
  Basis Set: (AUG-CC-PVDZ AUX)
    Blend: AUG-CC-PVDZ-JKFIT
  @DF-RHF Final Energy:  -449.52502132459307
    Total Energy =                       -449.5250213245931263
  //            Monomer A HF           //
    Molecular point group: c1
  Multiplicity = 1
  Basis Set: AUG-CC-PVDZ
    Blend: AUG-CC-PVDZ
  Basis Set: (AUG-CC-PVDZ AUX)
    Blend: AUG-CC-PVDZ-JKFIT
  @DF-RHF Final Energy:  -224.76234452919016
    Total Energy =                       -224.7623445291901589
  //            Monomer B HF           //
    Molecular point group: c1

    Geometry (in Bohr), charge = 0, multiplicity = 1:

       Center              X                  Y                   Z               Mass
    ------------   -----------------  -----------------  -----------------  -----------------
      Gh(N)           6.279812100000    -4.253033720000     0.193138650000    14.003074004430
      Gh(N)           6.068707770000    -2.281256970000     1.805443170000    14.003074004430
      Gh(H)           3.668711560000    -5.646289410000    -1.966840010000     1.007825032230
      Gh(H)           0.690345210000    -2.375456940000    -0.428642360000     1.007825032230
      Gh(H)           3.359174420000     0.176506010000     3.092650170000     1.007825032230
      Gh(H)           7.352667820000    -1.994613110000     2.906807020000     1.007825032230
      Gh(C)           3.779525860000    -1.215084530000     1.768581720000    12.000000000000
      Gh(C)           2.382429980000    -2.555055380000     0.046076810000    12.000000000000
      Gh(C)           4.017714680000    -4.384104900000    -0.887618630000    12.000000000000
         N           18.274995320000     9.600547450000     1.587858210000    14.003074004430
         N           18.393857580000     7.562640410000     0.050684500000    14.003074004430
         H           20.948158060000    12.001457420000     2.305888570000     1.007825032230
         H           23.842794620000     9.558918670000    -0.449248940000     1.007825032230
         H           20.906370540000     5.845869660000    -2.353885250000     1.007825032230
         H           16.931449370000     6.752663360000    -0.335080830000     1.007825032230
         C           20.676693990000     7.232464740000    -0.978364350000    12.000000000000
         C           22.159686420000     9.162136960000    -0.088441880000    12.000000000000
         C           20.598381090000    10.547304770000     1.503256060000    12.000000000000

  Charge       = 0
  Multiplicity = 1
  Basis Set: AUG-CC-PVDZ
    Blend: AUG-CC-PVDZ
  Basis Set: (AUG-CC-PVDZ AUX)
    Blend: AUG-CC-PVDZ-JKFIT

    Orbital Energies [Eh]
    ---------------------

    Doubly Occupied:

       1A    -15.636234     2A    -15.592293     3A    -11.279902
       4A    -11.237759     5A    -11.209884     6A     -1.387001
       7A     -1.121894     8A     -1.066927     9A     -0.872759
      10A     -0.837039    11A     -0.757272    12A     -0.645745
      13A     -0.620828    14A     -0.609177    15A     -0.583905
      16A     -0.461413    17A     -0.370715    18A     -0.346054

  @DF-RHF Final Energy:  -224.76243726961343

   => Energetics <=

    Nuclear Repulsion Energy =            166.6286027753793064
    One-Electron Energy =                -633.5084783168716740
    Two-Electron Energy =                 242.1174382718789388
    Total Energy =                       -224.7624372696134287

  Dipole Moment: [D]
     X:     0.7394      Y:    -1.4336      Z:    -1.7871     Total:     2.4074

    SAPT Results
  --------------------------------------------------------------------------------------------------------
    Electrostatics                 -0.23709051 [mEh]      -0.14877654 [kcal/mol]      -0.62248106 [kJ/mol]
      Elst10,r                     -0.23709051 [mEh]      -0.14877654 [kcal/mol]      -0.62248106 [kJ/mol]

    Exchange                        0.00000007 [mEh]       0.00000004 [kcal/mol]       0.00000019 [kJ/mol]
      Exch10                        0.00000007 [mEh]       0.00000004 [kcal/mol]       0.00000019 [kJ/mol]
      Exch10(S^2)                   0.00000007 [mEh]       0.00000004 [kcal/mol]       0.00000019 [kJ/mol]

    Induction                      -0.00243535 [mEh]      -0.00152820 [kcal/mol]      -0.00639400 [kJ/mol]
      Ind20,r                      -0.00238008 [mEh]      -0.00149353 [kcal/mol]      -0.00624891 [kJ/mol]
      Exch-Ind20,r                  0.00000322 [mEh]       0.00000202 [kcal/mol]       0.00000845 [kJ/mol]
      delta HF,r (2)               -0.00005848 [mEh]      -0.00003670 [kcal/mol]      -0.00015353 [kJ/mol]

    Dispersion                     -0.02499786 [mEh]      -0.01568640 [kcal/mol]      -0.06563188 [kJ/mol]
      Disp20                       -0.02499838 [mEh]      -0.01568672 [kcal/mol]      -0.06563324 [kJ/mol]
      Exch-Disp20                   0.00000052 [mEh]       0.00000033 [kcal/mol]       0.00000137 [kJ/mol]
      Disp20 (SS)                  -0.01249919 [mEh]      -0.00784336 [kcal/mol]      -0.03281662 [kJ/mol]
      Disp20 (OS)                  -0.01249919 [mEh]      -0.00784336 [kcal/mol]      -0.03281662 [kJ/mol]
      Exch-Disp20 (SS)              0.00000043 [mEh]       0.00000027 [kcal/mol]       0.00000113 [kJ/mol]
      Exch-Disp20 (OS)              0.00000009 [mEh]       0.00000006 [kcal/mol]       0.00000024 [kJ/mol]

  Total HF                         -0.23952579 [mEh]      -0.15030470 [kcal/mol]      -0.62887487 [kJ/mol]
  Total SAPT0                      -0.26452365 [mEh]      -0.16599110 [kcal/mol]      -0.69450675 [kJ/mol]

  Special recipe for scaled SAPT0 (see Manual):
    Electrostatics sSAPT0          -0.23709051 [mEh]      -0.14877654 [kcal/mol]      -0.62248106 [kJ/mol]
    Exchange sSAPT0                 0.00000007 [mEh]       0.00000004 [kcal/mol]       0.00000019 [kJ/mol]
    Induction sSAPT0               -0.00243535 [mEh]      -0.00152820 [kcal/mol]      -0.00639400 [kJ/mol]
    Dispersion sSAPT0              -0.02499786 [mEh]      -0.01568640 [kcal/mol]      -0.06563188 [kJ/mol]
  Total sSAPT0                     -0.26452365 [mEh]      -0.16599110 [kcal/mol]      -0.69450675 [kJ/mol]
  --------------------------------------------------------------------------------------------------------

*** Psi4 exiting successfully. Buy a developer a beer!
