                               Psi4 1.4rc3

  ==> Input File <==

--------------------------------------------------------------------------
# PSI4 file produced by CrystaLattE

# Generated from:               pyrazole.xyz
# Psithon input for N-mer:      2mer-0+195
# Number of atoms per monomer:  [9, 9]
# Number of replicas:           1
# COM priority:                 4.432637720224e-05
# Minimum COM separations:      14.952
# Separation priority:          7.946633093596e-05
# Minimum monomer separations:  12.309
# Cutoff priority:              3.416469505800e-06
# Nuclear repulsion energy:     379.0614552020815

memory 7 GB

molecule Dimer_0_195 {
  N            6.27981210      -4.25303372       0.19313865
  N            6.06870777      -2.28125697       1.80544317
  H            3.66871156      -5.64628941      -1.96684001
  H            0.69034521      -2.37545694      -0.42864236
  H            3.35917442       0.17650601       3.09265017
  H            7.35266782      -1.99461311       2.90680702
  C            3.77952586      -1.21508453       1.76858172
  C            2.38242998      -2.55505538       0.04607681
  C            4.01771468      -4.38410490      -0.88761863
--
  N           10.53656684      -9.49302627     -27.14001149
  N           10.65542910      -7.45511923     -25.60283778
  H           13.20972957     -11.89393623     -27.85804185
  H           16.10436613      -9.45139749     -25.10290434
  H           13.16794206      -5.73834848     -23.19826803
  H            9.19302089      -6.64514217     -25.21707245
  C           12.93826550      -7.12494356     -24.57378893
  C           14.42125794      -9.05461578     -25.46371140
  C           12.85995261     -10.43978359     -27.05540934
units = au
no_com
no_reorient
}

set {
  e_convergence 10
  d_convergence 10
  scf_type df
  mp2_type df
  cc_type df
  freeze_core true
}

energy('sapt0/aug-cc-pvdz')

--------------------------------------------------------------------------

  //              Dimer HF             //
    Molecular point group: c1
  Charge       = 0
  Multiplicity = 1
  Basis Set: AUG-CC-PVDZ
    Blend: AUG-CC-PVDZ
  Basis Set: (AUG-CC-PVDZ AUX)
    Blend: AUG-CC-PVDZ-JKFIT
  @DF-RHF Final Energy:  -449.52481933684697
    Total Energy =                       -449.5248193368469174
  //            Monomer A HF           //
    Molecular point group: c1
  Multiplicity = 1
  Basis Set: AUG-CC-PVDZ
    Blend: AUG-CC-PVDZ
  Basis Set: (AUG-CC-PVDZ AUX)
    Blend: AUG-CC-PVDZ-JKFIT
  @DF-RHF Final Energy:  -224.76233953580567
    Total Energy =                       -224.7623395358056655
  //            Monomer B HF           //
    Molecular point group: c1

    Geometry (in Bohr), charge = 0, multiplicity = 1:

       Center              X                  Y                   Z               Mass
    ------------   -----------------  -----------------  -----------------  -----------------
      Gh(N)           6.279812100000    -4.253033720000     0.193138650000    14.003074004430
      Gh(N)           6.068707770000    -2.281256970000     1.805443170000    14.003074004430
      Gh(H)           3.668711560000    -5.646289410000    -1.966840010000     1.007825032230
      Gh(H)           0.690345210000    -2.375456940000    -0.428642360000     1.007825032230
      Gh(H)           3.359174420000     0.176506010000     3.092650170000     1.007825032230
      Gh(H)           7.352667820000    -1.994613110000     2.906807020000     1.007825032230
      Gh(C)           3.779525860000    -1.215084530000     1.768581720000    12.000000000000
      Gh(C)           2.382429980000    -2.555055380000     0.046076810000    12.000000000000
      Gh(C)           4.017714680000    -4.384104900000    -0.887618630000    12.000000000000
         N           10.536566840000    -9.493026270000   -27.140011490000    14.003074004430
         N           10.655429100000    -7.455119230000   -25.602837780000    14.003074004430
         H           13.209729570000   -11.893936230000   -27.858041850000     1.007825032230
         H           16.104366130000    -9.451397490000   -25.102904340000     1.007825032230
         H           13.167942060000    -5.738348480000   -23.198268030000     1.007825032230
         H            9.193020890000    -6.645142170000   -25.217072450000     1.007825032230
         C           12.938265500000    -7.124943560000   -24.573788930000    12.000000000000
         C           14.421257940000    -9.054615780000   -25.463711400000    12.000000000000
         C           12.859952610000   -10.439783590000   -27.055409340000    12.000000000000

  Charge       = 0
  Multiplicity = 1
  Basis Set: AUG-CC-PVDZ
    Blend: AUG-CC-PVDZ
  Basis Set: (AUG-CC-PVDZ AUX)
    Blend: AUG-CC-PVDZ-JKFIT

    Orbital Energies [Eh]
    ---------------------

    Doubly Occupied:

       1A    -15.636233     2A    -15.592291     3A    -11.279903
       4A    -11.237759     5A    -11.209884     6A     -1.387001
       7A     -1.121894     8A     -1.066928     9A     -0.872759
      10A     -0.837039    11A     -0.757272    12A     -0.645745
      13A     -0.620828    14A     -0.609177    15A     -0.583905
      16A     -0.461413    17A     -0.370715    18A     -0.346055

  @DF-RHF Final Energy:  -224.76243506983602

   => Energetics <=

    Nuclear Repulsion Energy =            166.6286028637914285
    One-Electron Energy =                -633.5084735556862370
    Two-Electron Energy =                 242.1174356220587640
    Total Energy =                       -224.7624350698360161

  Dipole Moment: [D]
     X:     0.7394      Y:     1.4336      Z:     1.7871     Total:     2.4074

    SAPT Results
  --------------------------------------------------------------------------------------------------------
    Electrostatics                 -0.04461616 [mEh]      -0.02799706 [kcal/mol]      -0.11713972 [kJ/mol]
      Elst10,r                     -0.04461616 [mEh]      -0.02799706 [kcal/mol]      -0.11713972 [kJ/mol]

    Exchange                        0.00000003 [mEh]       0.00000002 [kcal/mol]       0.00000009 [kJ/mol]
      Exch10                        0.00000003 [mEh]       0.00000002 [kcal/mol]       0.00000009 [kJ/mol]
      Exch10(S^2)                   0.00000003 [mEh]       0.00000002 [kcal/mol]       0.00000009 [kJ/mol]

    Induction                      -0.00011508 [mEh]      -0.00007221 [kcal/mol]      -0.00030214 [kJ/mol]
      Ind20,r                      -0.00020631 [mEh]      -0.00012946 [kcal/mol]      -0.00054166 [kJ/mol]
      Exch-Ind20,r                  0.00000005 [mEh]       0.00000003 [kcal/mol]       0.00000012 [kJ/mol]
      delta HF,r (2)                0.00009118 [mEh]       0.00005722 [kcal/mol]       0.00023940 [kJ/mol]

    Dispersion                     -0.00226402 [mEh]      -0.00142069 [kcal/mol]      -0.00594418 [kJ/mol]
      Disp20                       -0.00226402 [mEh]      -0.00142069 [kcal/mol]      -0.00594418 [kJ/mol]
      Exch-Disp20                   0.00000000 [mEh]       0.00000000 [kcal/mol]       0.00000000 [kJ/mol]
      Disp20 (SS)                  -0.00113201 [mEh]      -0.00071035 [kcal/mol]      -0.00297209 [kJ/mol]
      Disp20 (OS)                  -0.00113201 [mEh]      -0.00071035 [kcal/mol]      -0.00297209 [kJ/mol]
      Exch-Disp20 (SS)              0.00000000 [mEh]       0.00000000 [kcal/mol]       0.00000000 [kJ/mol]
      Exch-Disp20 (OS)              0.00000000 [mEh]       0.00000000 [kcal/mol]       0.00000000 [kJ/mol]

  Total HF                         -0.04473121 [mEh]      -0.02806926 [kcal/mol]      -0.11744176 [kJ/mol]
  Total SAPT0                      -0.04699522 [mEh]      -0.02948995 [kcal/mol]      -0.12338594 [kJ/mol]

  Special recipe for scaled SAPT0 (see Manual):
    Electrostatics sSAPT0          -0.04461616 [mEh]      -0.02799706 [kcal/mol]      -0.11713972 [kJ/mol]
    Exchange sSAPT0                 0.00000003 [mEh]       0.00000002 [kcal/mol]       0.00000009 [kJ/mol]
    Induction sSAPT0               -0.00011508 [mEh]      -0.00007221 [kcal/mol]      -0.00030214 [kJ/mol]
    Dispersion sSAPT0              -0.00226402 [mEh]      -0.00142069 [kcal/mol]      -0.00594418 [kJ/mol]
  Total sSAPT0                     -0.04699522 [mEh]      -0.02948995 [kcal/mol]      -0.12338594 [kJ/mol]
  --------------------------------------------------------------------------------------------------------

*** Psi4 exiting successfully. Buy a developer a beer!
