                               Psi4 1.4rc3

  ==> Input File <==

--------------------------------------------------------------------------
# PSI4 file produced by CrystaLattE

# Generated from:               pyrazole.xyz
# Psithon input for N-mer:      2mer-0+282
# Number of atoms per monomer:  [9, 9]
# Number of replicas:           2
# COM priority:                 2.566840162697e-05
# Minimum COM separations:      17.939
# Separation priority:          3.896820397924e-05
# Minimum monomer separations:  15.609
# Cutoff priority:              1.321134964439e-06
# Nuclear repulsion energy:     371.46183875604476

memory 7 GB

molecule Dimer_0_282 {
  N            6.27981210      -4.25303372       0.19313865
  N            6.06870777      -2.28125697       1.80544317
  H            3.66871156      -5.64628941      -1.96684001
  H            0.69034521      -2.37545694      -0.42864236
  H            3.35917442       0.17650601       3.09265017
  H            7.35266782      -1.99461311       2.90680702
  C            3.77952586      -1.21508453       1.76858172
  C            2.38242998      -2.55505538       0.04607681
  C            4.01771468      -4.38410490      -0.88761863
--
  N           -1.45861638     -16.14696995      31.85072579
  N           -1.66972071     -14.17519320      30.23842126
  H           -4.06971692     -17.54022564      34.01070444
  H           -7.04808328     -14.26939318      32.47250680
  H           -4.37925406     -11.71743022      28.95121426
  H           -0.38576066     -13.88854934      29.13705741
  C           -3.95890263     -13.10902076      30.27528272
  C           -5.35599851     -14.44899162      31.99778762
  C           -3.72071380     -16.27804113      32.93148306
units = au
no_com
no_reorient
}

set {
  e_convergence 10
  d_convergence 10
  scf_type df
  mp2_type df
  cc_type df
  freeze_core true
}

energy('sapt0/aug-cc-pvdz')

--------------------------------------------------------------------------

  //              Dimer HF             //
    Molecular point group: c1
  Charge       = 0
  Multiplicity = 1
  Basis Set: AUG-CC-PVDZ
    Blend: AUG-CC-PVDZ
  Basis Set: (AUG-CC-PVDZ AUX)
    Blend: AUG-CC-PVDZ-JKFIT
  @DF-RHF Final Energy:  -449.52465316787158
    Total Energy =                       -449.5246531678716337
  //            Monomer A HF           //
    Molecular point group: c1
  Multiplicity = 1
  Basis Set: AUG-CC-PVDZ
    Blend: AUG-CC-PVDZ
  Basis Set: (AUG-CC-PVDZ AUX)
    Blend: AUG-CC-PVDZ-JKFIT
  @DF-RHF Final Energy:  -224.76233952229077
    Total Energy =                       -224.7623395222907732
  //            Monomer B HF           //
    Molecular point group: c1

    Geometry (in Bohr), charge = 0, multiplicity = 1:

       Center              X                  Y                   Z               Mass
    ------------   -----------------  -----------------  -----------------  -----------------
      Gh(N)           6.279812100000    -4.253033720000     0.193138650000    14.003074004430
      Gh(N)           6.068707770000    -2.281256970000     1.805443170000    14.003074004430
      Gh(H)           3.668711560000    -5.646289410000    -1.966840010000     1.007825032230
      Gh(H)           0.690345210000    -2.375456940000    -0.428642360000     1.007825032230
      Gh(H)           3.359174420000     0.176506010000     3.092650170000     1.007825032230
      Gh(H)           7.352667820000    -1.994613110000     2.906807020000     1.007825032230
      Gh(C)           3.779525860000    -1.215084530000     1.768581720000    12.000000000000
      Gh(C)           2.382429980000    -2.555055380000     0.046076810000    12.000000000000
      Gh(C)           4.017714680000    -4.384104900000    -0.887618630000    12.000000000000
         N           -1.458616380000   -16.146969950000    31.850725790000    14.003074004430
         N           -1.669720710000   -14.175193200000    30.238421260000    14.003074004430
         H           -4.069716920000   -17.540225640000    34.010704440000     1.007825032230
         H           -7.048083280000   -14.269393180000    32.472506800000     1.007825032230
         H           -4.379254060000   -11.717430220000    28.951214260000     1.007825032230
         H           -0.385760660000   -13.888549340000    29.137057410000     1.007825032230
         C           -3.958902630000   -13.109020760000    30.275282720000    12.000000000000
         C           -5.355998510000   -14.448991620000    31.997787620000    12.000000000000
         C           -3.720713800000   -16.278041130000    32.931483060000    12.000000000000

  Charge       = 0
  Multiplicity = 1
  Basis Set: AUG-CC-PVDZ
    Blend: AUG-CC-PVDZ
  Basis Set: (AUG-CC-PVDZ AUX)
    Blend: AUG-CC-PVDZ-JKFIT

    Orbital Energies [Eh]
    ---------------------

    Doubly Occupied:

       1A    -15.636223     2A    -15.592313     3A    -11.279894
       4A    -11.237784     5A    -11.209891     6A     -1.386922
       7A     -1.121901     8A     -1.066898     9A     -0.872768
      10A     -0.837061    11A     -0.757292    12A     -0.645746
      13A     -0.620834    14A     -0.609140    15A     -0.583920
      16A     -0.461404    17A     -0.370721    18A     -0.346048

  @DF-RHF Final Energy:  -224.76233952218476

   => Energetics <=

    Nuclear Repulsion Energy =            166.6240563184742314
    One-Electron Energy =                -633.4992731319027826
    Two-Electron Energy =                 242.1128772912437910
    Total Energy =                       -224.7623395221847602

  Dipole Moment: [D]
     X:    -1.0235      Y:     1.6055      Z:    -1.4733     Total:     2.4075

    SAPT Results
  --------------------------------------------------------------------------------------------------------
    Electrostatics                  0.02588743 [mEh]       0.01624461 [kcal/mol]       0.06796743 [kJ/mol]
      Elst10,r                      0.02588743 [mEh]       0.01624461 [kcal/mol]       0.06796743 [kJ/mol]

    Exchange                        0.00000000 [mEh]       0.00000000 [kcal/mol]       0.00000000 [kJ/mol]
      Exch10                        0.00000000 [mEh]       0.00000000 [kcal/mol]       0.00000000 [kJ/mol]
      Exch10(S^2)                   0.00000000 [mEh]       0.00000000 [kcal/mol]       0.00000000 [kJ/mol]

    Induction                      -0.00001082 [mEh]      -0.00000679 [kcal/mol]      -0.00002842 [kJ/mol]
      Ind20,r                      -0.00006647 [mEh]      -0.00004171 [kcal/mol]      -0.00017453 [kJ/mol]
      Exch-Ind20,r                  0.00000000 [mEh]       0.00000000 [kcal/mol]       0.00000000 [kJ/mol]
      delta HF,r (2)                0.00005565 [mEh]       0.00003492 [kcal/mol]       0.00014611 [kJ/mol]

    Dispersion                     -0.00072715 [mEh]      -0.00045629 [kcal/mol]      -0.00190913 [kJ/mol]
      Disp20                       -0.00072715 [mEh]      -0.00045629 [kcal/mol]      -0.00190913 [kJ/mol]
      Exch-Disp20                   0.00000000 [mEh]       0.00000000 [kcal/mol]       0.00000000 [kJ/mol]
      Disp20 (SS)                  -0.00036357 [mEh]      -0.00022815 [kcal/mol]      -0.00095456 [kJ/mol]
      Disp20 (OS)                  -0.00036357 [mEh]      -0.00022815 [kcal/mol]      -0.00095456 [kJ/mol]
      Exch-Disp20 (SS)              0.00000000 [mEh]       0.00000000 [kcal/mol]       0.00000000 [kJ/mol]
      Exch-Disp20 (OS)              0.00000000 [mEh]       0.00000000 [kcal/mol]       0.00000000 [kJ/mol]

  Total HF                          0.02587660 [mEh]       0.01623781 [kcal/mol]       0.06793901 [kJ/mol]
  Total SAPT0                       0.02514946 [mEh]       0.01578152 [kcal/mol]       0.06602989 [kJ/mol]

  Special recipe for scaled SAPT0 (see Manual):
    Electrostatics sSAPT0           0.02588743 [mEh]       0.01624461 [kcal/mol]       0.06796743 [kJ/mol]
    Exchange sSAPT0                 0.00000000 [mEh]       0.00000000 [kcal/mol]       0.00000000 [kJ/mol]
    Induction sSAPT0               -0.00001082 [mEh]      -0.00000679 [kcal/mol]      -0.00002842 [kJ/mol]
    Dispersion sSAPT0              -0.00072715 [mEh]      -0.00045629 [kcal/mol]      -0.00190913 [kJ/mol]
  Total sSAPT0                      0.02514946 [mEh]       0.01578152 [kcal/mol]       0.06602989 [kJ/mol]
  --------------------------------------------------------------------------------------------------------

*** Psi4 exiting successfully. Buy a developer a beer!
