                               Psi4 1.4rc3

  ==> Input File <==

--------------------------------------------------------------------------
# PSI4 file produced by CrystaLattE

# Generated from:               pyrazole.xyz
# Psithon input for N-mer:      2mer-0+65
# Number of atoms per monomer:  [9, 9]
# Number of replicas:           2
# COM priority:                 1.232671787128e-04
# Minimum COM separations:      10.633
# Separation priority:          2.758885530817e-04
# Minimum monomer separations:  8.129
# Cutoff priority:              1.796021682262e-05
# Nuclear repulsion energy:     397.47997496554376

memory 7 GB

molecule Dimer_0_65 {
  N            6.27981210      -4.25303372       0.19313865
  N            6.06870777      -2.28125697       1.80544317
  H            3.66871156      -5.64628941      -1.96684001
  H            0.69034521      -2.37545694      -0.42864236
  H            3.35917442       0.17650601       3.09265017
  H            7.35266782      -1.99461311       2.90680702
  C            3.77952586      -1.21508453       1.76858172
  C            2.38242998      -2.55505538       0.04607681
  C            4.01771468      -4.38410490      -0.88761863
--
  N            6.27981210      -7.53338133      19.39181122
  N            6.06870777      -9.50515808      21.00411574
  H            3.66871156      -6.14012564      17.23183256
  H            0.69034521      -9.41095811      18.77003021
  H            3.35917442     -11.96292106      22.29132274
  H            7.35266782      -9.79180194      22.10547959
  C            3.77952586     -10.57133052      20.96725429
  C            2.38242998      -9.23135967      19.24474939
  C            4.01771468      -7.40231015      18.31105394
units = au
no_com
no_reorient
}

set {
  e_convergence 10
  d_convergence 10
  scf_type df
  mp2_type df
  cc_type df
  freeze_core true
}

energy('sapt0/aug-cc-pvdz')

--------------------------------------------------------------------------

  //              Dimer HF             //
    Molecular point group: c1
  Charge       = 0
  Multiplicity = 1
  Basis Set: AUG-CC-PVDZ
    Blend: AUG-CC-PVDZ
  Basis Set: (AUG-CC-PVDZ AUX)
    Blend: AUG-CC-PVDZ-JKFIT
  @DF-RHF Final Energy:  -449.52474210115997
    Total Energy =                       -449.5247421011599727
  //            Monomer A HF           //
    Molecular point group: c1
  Multiplicity = 1
  Basis Set: AUG-CC-PVDZ
    Blend: AUG-CC-PVDZ
  Basis Set: (AUG-CC-PVDZ AUX)
    Blend: AUG-CC-PVDZ-JKFIT
  @DF-RHF Final Energy:  -224.76234468754456
    Total Energy =                       -224.7623446875445552
  //            Monomer B HF           //
    Molecular point group: c1

    Geometry (in Bohr), charge = 0, multiplicity = 1:

       Center              X                  Y                   Z               Mass
    ------------   -----------------  -----------------  -----------------  -----------------
      Gh(N)           6.279812100000    -4.253033720000     0.193138650000    14.003074004430
      Gh(N)           6.068707770000    -2.281256970000     1.805443170000    14.003074004430
      Gh(H)           3.668711560000    -5.646289410000    -1.966840010000     1.007825032230
      Gh(H)           0.690345210000    -2.375456940000    -0.428642360000     1.007825032230
      Gh(H)           3.359174420000     0.176506010000     3.092650170000     1.007825032230
      Gh(H)           7.352667820000    -1.994613110000     2.906807020000     1.007825032230
      Gh(C)           3.779525860000    -1.215084530000     1.768581720000    12.000000000000
      Gh(C)           2.382429980000    -2.555055380000     0.046076810000    12.000000000000
      Gh(C)           4.017714680000    -4.384104900000    -0.887618630000    12.000000000000
         N            6.279812100000    -7.533381330000    19.391811220000    14.003074004430
         N            6.068707770000    -9.505158080000    21.004115740000    14.003074004430
         H            3.668711560000    -6.140125640000    17.231832560000     1.007825032230
         H            0.690345210000    -9.410958110000    18.770030210000     1.007825032230
         H            3.359174420000   -11.962921060000    22.291322740000     1.007825032230
         H            7.352667820000    -9.791801940000    22.105479590000     1.007825032230
         C            3.779525860000   -10.571330520000    20.967254290000    12.000000000000
         C            2.382429980000    -9.231359670000    19.244749390000    12.000000000000
         C            4.017714680000    -7.402310150000    18.311053940000    12.000000000000

  Charge       = 0
  Multiplicity = 1
  Basis Set: AUG-CC-PVDZ
    Blend: AUG-CC-PVDZ
  Basis Set: (AUG-CC-PVDZ AUX)
    Blend: AUG-CC-PVDZ-JKFIT

    Orbital Energies [Eh]
    ---------------------

    Doubly Occupied:

       1A    -15.636222     2A    -15.592313     3A    -11.279894
       4A    -11.237778     5A    -11.209890     6A     -1.386921
       7A     -1.121901     8A     -1.066898     9A     -0.872767
      10A     -0.837061    11A     -0.757292    12A     -0.645746
      13A     -0.620834    14A     -0.609140    15A     -0.583920
      16A     -0.461404    17A     -0.370720    18A     -0.346047

  @DF-RHF Final Energy:  -224.76234570617783

   => Energetics <=

    Nuclear Repulsion Energy =            166.6240564751214208
    One-Electron Energy =                -633.4993057536838705
    Two-Electron Energy =                 242.1129035723846528
    Total Energy =                       -224.7623457061778254

  Dipole Moment: [D]
     X:    -1.0235      Y:    -1.6056      Z:     1.4732     Total:     2.4075

    SAPT Results
  --------------------------------------------------------------------------------------------------------
    Electrostatics                 -0.05071525 [mEh]      -0.03182430 [kcal/mol]      -0.13315288 [kJ/mol]
      Elst10,r                     -0.05071525 [mEh]      -0.03182430 [kcal/mol]      -0.13315288 [kJ/mol]

    Exchange                        0.00000170 [mEh]       0.00000107 [kcal/mol]       0.00000448 [kJ/mol]
      Exch10                        0.00000170 [mEh]       0.00000107 [kcal/mol]       0.00000448 [kJ/mol]
      Exch10(S^2)                   0.00000170 [mEh]       0.00000107 [kcal/mol]       0.00000448 [kJ/mol]

    Induction                      -0.00099389 [mEh]      -0.00062368 [kcal/mol]      -0.00260946 [kJ/mol]
      Ind20,r                      -0.00111413 [mEh]      -0.00069913 [kcal/mol]      -0.00292516 [kJ/mol]
      Exch-Ind20,r                  0.00000603 [mEh]       0.00000379 [kcal/mol]       0.00001584 [kJ/mol]
      delta HF,r (2)                0.00011421 [mEh]       0.00007167 [kcal/mol]       0.00029986 [kJ/mol]

    Dispersion                     -0.01811851 [mEh]      -0.01136954 [kcal/mol]      -0.04757015 [kJ/mol]
      Disp20                       -0.01811919 [mEh]      -0.01136996 [kcal/mol]      -0.04757193 [kJ/mol]
      Exch-Disp20                   0.00000068 [mEh]       0.00000043 [kcal/mol]       0.00000178 [kJ/mol]
      Disp20 (SS)                  -0.00905960 [mEh]      -0.00568498 [kcal/mol]      -0.02378597 [kJ/mol]
      Disp20 (OS)                  -0.00905960 [mEh]      -0.00568498 [kcal/mol]      -0.02378597 [kJ/mol]
      Exch-Disp20 (SS)              0.00000057 [mEh]       0.00000036 [kcal/mol]       0.00000151 [kJ/mol]
      Exch-Disp20 (OS)              0.00000010 [mEh]       0.00000007 [kcal/mol]       0.00000027 [kJ/mol]

  Total HF                         -0.05170744 [mEh]      -0.03244691 [kcal/mol]      -0.13575786 [kJ/mol]
  Total SAPT0                      -0.06982595 [mEh]      -0.04381645 [kcal/mol]      -0.18332801 [kJ/mol]

  Special recipe for scaled SAPT0 (see Manual):
    Electrostatics sSAPT0          -0.05071525 [mEh]      -0.03182430 [kcal/mol]      -0.13315288 [kJ/mol]
    Exchange sSAPT0                 0.00000170 [mEh]       0.00000107 [kcal/mol]       0.00000448 [kJ/mol]
    Induction sSAPT0               -0.00099389 [mEh]      -0.00062368 [kcal/mol]      -0.00260946 [kJ/mol]
    Dispersion sSAPT0              -0.01811851 [mEh]      -0.01136954 [kcal/mol]      -0.04757015 [kJ/mol]
  Total sSAPT0                     -0.06982595 [mEh]      -0.04381645 [kcal/mol]      -0.18332801 [kJ/mol]
  --------------------------------------------------------------------------------------------------------

*** Psi4 exiting successfully. Buy a developer a beer!
