                               Psi4 1.4rc3

  ==> Input File <==

--------------------------------------------------------------------------
# PSI4 file produced by CrystaLattE

# Generated from:               pyrazole.xyz
# Psithon input for N-mer:      2mer-0+93
# Number of atoms per monomer:  [9, 9]
# Number of replicas:           1
# COM priority:                 1.295952550086e-04
# Minimum COM separations:      10.457
# Separation priority:          2.908665875948e-04
# Minimum monomer separations:  7.987
# Cutoff priority:              1.927192578230e-05
# Nuclear repulsion energy:     398.67888017646885

memory 7 GB

molecule Dimer_0_93 {
  N            6.27981210      -4.25303372       0.19313865
  N            6.06870777      -2.28125697       1.80544317
  H            3.66871156      -5.64628941      -1.96684001
  H            0.69034521      -2.37545694      -0.42864236
  H            3.35917442       0.17650601       3.09265017
  H            7.35266782      -1.99461311       2.90680702
  C            3.77952586      -1.21508453       1.76858172
  C            2.38242998      -2.55505538       0.04607681
  C            4.01771468      -4.38410490      -0.88761863
--
  N           10.53656684      -2.29338878      17.65689117
  N           10.65542910      -4.33129582      19.19406489
  H           13.20972957       0.10752118      16.93886082
  H           16.10436613      -2.33501756      19.69399832
  H           13.16794206      -6.04806657      21.59863463
  H            9.19302089      -5.14127288      19.57983022
  C           12.93826550      -4.66147149      20.22311374
  C           14.42125794      -2.73179927      19.33319127
  C           12.85995261      -1.34663146      17.74149332
units = au
no_com
no_reorient
}

set {
  e_convergence 10
  d_convergence 10
  scf_type df
  mp2_type df
  cc_type df
  freeze_core true
}

energy('sapt0/aug-cc-pvdz')

--------------------------------------------------------------------------

  //              Dimer HF             //
    Molecular point group: c1
  Charge       = 0
  Multiplicity = 1
  Basis Set: AUG-CC-PVDZ
    Blend: AUG-CC-PVDZ
  Basis Set: (AUG-CC-PVDZ AUX)
    Blend: AUG-CC-PVDZ-JKFIT
  @DF-RHF Final Energy:  -449.52504571036803
    Total Energy =                       -449.5250457103679764
  //            Monomer A HF           //
    Molecular point group: c1
  Multiplicity = 1
  Basis Set: AUG-CC-PVDZ
    Blend: AUG-CC-PVDZ
  Basis Set: (AUG-CC-PVDZ AUX)
    Blend: AUG-CC-PVDZ-JKFIT
  @DF-RHF Final Energy:  -224.76234134951108
    Total Energy =                       -224.7623413495110754
  //            Monomer B HF           //
    Molecular point group: c1

    Geometry (in Bohr), charge = 0, multiplicity = 1:

       Center              X                  Y                   Z               Mass
    ------------   -----------------  -----------------  -----------------  -----------------
      Gh(N)           6.279812100000    -4.253033720000     0.193138650000    14.003074004430
      Gh(N)           6.068707770000    -2.281256970000     1.805443170000    14.003074004430
      Gh(H)           3.668711560000    -5.646289410000    -1.966840010000     1.007825032230
      Gh(H)           0.690345210000    -2.375456940000    -0.428642360000     1.007825032230
      Gh(H)           3.359174420000     0.176506010000     3.092650170000     1.007825032230
      Gh(H)           7.352667820000    -1.994613110000     2.906807020000     1.007825032230
      Gh(C)           3.779525860000    -1.215084530000     1.768581720000    12.000000000000
      Gh(C)           2.382429980000    -2.555055380000     0.046076810000    12.000000000000
      Gh(C)           4.017714680000    -4.384104900000    -0.887618630000    12.000000000000
         N           10.536566840000    -2.293388780000    17.656891170000    14.003074004430
         N           10.655429100000    -4.331295820000    19.194064890000    14.003074004430
         H           13.209729570000     0.107521180000    16.938860820000     1.007825032230
         H           16.104366130000    -2.335017560000    19.693998320000     1.007825032230
         H           13.167942060000    -6.048066570000    21.598634630000     1.007825032230
         H            9.193020890000    -5.141272880000    19.579830220000     1.007825032230
         C           12.938265500000    -4.661471490000    20.223113740000    12.000000000000
         C           14.421257940000    -2.731799270000    19.333191270000    12.000000000000
         C           12.859952610000    -1.346631460000    17.741493320000    12.000000000000

  Charge       = 0
  Multiplicity = 1
  Basis Set: AUG-CC-PVDZ
    Blend: AUG-CC-PVDZ
  Basis Set: (AUG-CC-PVDZ AUX)
    Blend: AUG-CC-PVDZ-JKFIT

    Orbital Energies [Eh]
    ---------------------

    Doubly Occupied:

       1A    -15.636233     2A    -15.592293     3A    -11.279902
       4A    -11.237751     5A    -11.209883     6A     -1.387001
       7A     -1.121893     8A     -1.066927     9A     -0.872759
      10A     -0.837040    11A     -0.757272    12A     -0.645745
      13A     -0.620828    14A     -0.609177    15A     -0.583906
      16A     -0.461413    17A     -0.370715    18A     -0.346054

  @DF-RHF Final Energy:  -224.76244321303776

   => Energetics <=

    Nuclear Repulsion Energy =            166.6286027687440594
    One-Electron Energy =                -633.5085061805145870
    Two-Electron Energy =                 242.1174601987328003
    Total Energy =                       -224.7624432130377556

  Dipole Moment: [D]
     X:     0.7393      Y:    -1.4337      Z:     1.7871     Total:     2.4074

    SAPT Results
  --------------------------------------------------------------------------------------------------------
    Electrostatics                 -0.25788436 [mEh]      -0.16182488 [kcal/mol]      -0.67707530 [kJ/mol]
      Elst10,r                     -0.25788436 [mEh]      -0.16182488 [kcal/mol]      -0.67707530 [kJ/mol]

    Exchange                       -0.00000025 [mEh]      -0.00000016 [kcal/mol]      -0.00000066 [kJ/mol]
      Exch10                       -0.00000025 [mEh]      -0.00000016 [kcal/mol]      -0.00000066 [kJ/mol]
      Exch10(S^2)                  -0.00000025 [mEh]      -0.00000016 [kcal/mol]      -0.00000066 [kJ/mol]

    Induction                      -0.00326320 [mEh]      -0.00204769 [kcal/mol]      -0.00856754 [kJ/mol]
      Ind20,r                      -0.00330579 [mEh]      -0.00207441 [kcal/mol]      -0.00867934 [kJ/mol]
      Exch-Ind20,r                  0.00000369 [mEh]       0.00000232 [kcal/mol]       0.00000970 [kJ/mol]
      delta HF,r (2)                0.00003889 [mEh]       0.00002440 [kcal/mol]       0.00010210 [kJ/mol]

    Dispersion                     -0.02082715 [mEh]      -0.01306923 [kcal/mol]      -0.05468168 [kJ/mol]
      Disp20                       -0.02082776 [mEh]      -0.01306962 [kcal/mol]      -0.05468327 [kJ/mol]
      Exch-Disp20                   0.00000061 [mEh]       0.00000038 [kcal/mol]       0.00000159 [kJ/mol]
      Disp20 (SS)                  -0.01041388 [mEh]      -0.00653481 [kcal/mol]      -0.02734163 [kJ/mol]
      Disp20 (OS)                  -0.01041388 [mEh]      -0.00653481 [kcal/mol]      -0.02734163 [kJ/mol]
      Exch-Disp20 (SS)              0.00000050 [mEh]       0.00000032 [kcal/mol]       0.00000133 [kJ/mol]
      Exch-Disp20 (OS)              0.00000010 [mEh]       0.00000006 [kcal/mol]       0.00000027 [kJ/mol]

  Total HF                         -0.26114782 [mEh]      -0.16387273 [kcal/mol]      -0.68564350 [kJ/mol]
  Total SAPT0                      -0.28197497 [mEh]      -0.17694196 [kcal/mol]      -0.74032518 [kJ/mol]

  Special recipe for scaled SAPT0 (see Manual):
    Electrostatics sSAPT0          -0.25788436 [mEh]      -0.16182488 [kcal/mol]      -0.67707530 [kJ/mol]
    Exchange sSAPT0                -0.00000025 [mEh]      -0.00000016 [kcal/mol]      -0.00000066 [kJ/mol]
    Induction sSAPT0               -0.00326320 [mEh]      -0.00204769 [kcal/mol]      -0.00856754 [kJ/mol]
    Dispersion sSAPT0              -0.02082715 [mEh]      -0.01306923 [kcal/mol]      -0.05468168 [kJ/mol]
  Total sSAPT0                     -0.28197497 [mEh]      -0.17694196 [kcal/mol]      -0.74032518 [kJ/mol]
  --------------------------------------------------------------------------------------------------------

*** Psi4 exiting successfully. Buy a developer a beer!
