                               Psi4 1.4rc3

  ==> Input File <==

--------------------------------------------------------------------------
# PSI4 file produced by CrystaLattE

# Generated from:               pyrazole.xyz
# Psithon input for N-mer:      2mer-0+80
# Number of atoms per monomer:  [9, 9]
# Number of replicas:           1
# COM priority:                 1.492810103045e-04
# Minimum COM separations:      9.975
# Separation priority:          3.734766800829e-04
# Minimum monomer separations:  7.348
# Cutoff priority:              2.689581152936e-05
# Nuclear repulsion energy:     401.8282601696756

memory 7 GB

molecule Dimer_0_80 {
  N            6.27981210      -4.25303372       0.19313865
  N            6.06870777      -2.28125697       1.80544317
  H            3.66871156      -5.64628941      -1.96684001
  H            0.69034521      -2.37545694      -0.42864236
  H            3.35917442       0.17650601       3.09265017
  H            7.35266782      -1.99461311       2.90680702
  C            3.77952586      -1.21508453       1.76858172
  C            2.38242998      -2.55505538       0.04607681
  C            4.01771468      -4.38410490      -0.88761863
--
  N            2.79813836     -21.38696250      -4.81169931
  N            2.91700062     -19.34905546      -6.34887303
  H            5.47130109     -23.78787247      -4.09366896
  H            8.36593765     -21.34533372      -6.84880646
  H            5.42951358     -17.63228471      -8.75344277
  H            1.45459240     -18.53907841      -6.73463836
  C            5.19983702     -19.01887980      -7.37792188
  C            6.68282945     -20.94855201      -6.48799941
  C            5.12152412     -22.33371982      -4.89630146
units = au
no_com
no_reorient
}

set {
  e_convergence 10
  d_convergence 10
  scf_type df
  mp2_type df
  cc_type df
  freeze_core true
}

energy('sapt0/aug-cc-pvdz')

--------------------------------------------------------------------------

  //              Dimer HF             //
    Molecular point group: c1
  Charge       = 0
  Multiplicity = 1
  Basis Set: AUG-CC-PVDZ
    Blend: AUG-CC-PVDZ
  Basis Set: (AUG-CC-PVDZ AUX)
    Blend: AUG-CC-PVDZ-JKFIT
  @DF-RHF Final Energy:  -449.52477841211032
    Total Energy =                       -449.5247784121103223
  //            Monomer A HF           //
    Molecular point group: c1
  Multiplicity = 1
  Basis Set: AUG-CC-PVDZ
    Blend: AUG-CC-PVDZ
  Basis Set: (AUG-CC-PVDZ AUX)
    Blend: AUG-CC-PVDZ-JKFIT
  @DF-RHF Final Energy:  -224.76235752545270
    Total Energy =                       -224.7623575254526997
  //            Monomer B HF           //
    Molecular point group: c1

    Geometry (in Bohr), charge = 0, multiplicity = 1:

       Center              X                  Y                   Z               Mass
    ------------   -----------------  -----------------  -----------------  -----------------
      Gh(N)           6.279812100000    -4.253033720000     0.193138650000    14.003074004430
      Gh(N)           6.068707770000    -2.281256970000     1.805443170000    14.003074004430
      Gh(H)           3.668711560000    -5.646289410000    -1.966840010000     1.007825032230
      Gh(H)           0.690345210000    -2.375456940000    -0.428642360000     1.007825032230
      Gh(H)           3.359174420000     0.176506010000     3.092650170000     1.007825032230
      Gh(H)           7.352667820000    -1.994613110000     2.906807020000     1.007825032230
      Gh(C)           3.779525860000    -1.215084530000     1.768581720000    12.000000000000
      Gh(C)           2.382429980000    -2.555055380000     0.046076810000    12.000000000000
      Gh(C)           4.017714680000    -4.384104900000    -0.887618630000    12.000000000000
         N            2.798138360000   -21.386962500000    -4.811699310000    14.003074004430
         N            2.917000620000   -19.349055460000    -6.348873030000    14.003074004430
         H            5.471301090000   -23.787872470000    -4.093668960000     1.007825032230
         H            8.365937650000   -21.345333720000    -6.848806460000     1.007825032230
         H            5.429513580000   -17.632284710000    -8.753442770000     1.007825032230
         H            1.454592400000   -18.539078410000    -6.734638360000     1.007825032230
         C            5.199837020000   -19.018879800000    -7.377921880000    12.000000000000
         C            6.682829450000   -20.948552010000    -6.487999410000    12.000000000000
         C            5.121524120000   -22.333719820000    -4.896301460000    12.000000000000

  Charge       = 0
  Multiplicity = 1
  Basis Set: AUG-CC-PVDZ
    Blend: AUG-CC-PVDZ
  Basis Set: (AUG-CC-PVDZ AUX)
    Blend: AUG-CC-PVDZ-JKFIT

    Orbital Energies [Eh]
    ---------------------

    Doubly Occupied:

       1A    -15.636236     2A    -15.592295     3A    -11.279903
       4A    -11.237760     5A    -11.209887     6A     -1.387003
       7A     -1.121895     8A     -1.066930     9A     -0.872761
      10A     -0.837041    11A     -0.757275    12A     -0.645747
      13A     -0.620830    14A     -0.609179    15A     -0.583908
      16A     -0.461416    17A     -0.370716    18A     -0.346056

  @DF-RHF Final Energy:  -224.76244434098930

   => Energetics <=

    Nuclear Repulsion Energy =            166.6286029297136793
    One-Electron Energy =                -633.5084189007832265
    Two-Electron Energy =                 242.1173716300802425
    Total Energy =                       -224.7624443409893047

  Dipole Moment: [D]
     X:     0.7394      Y:     1.4335      Z:    -1.7868     Total:     2.4071

    SAPT Results
  --------------------------------------------------------------------------------------------------------
    Electrostatics                  0.02495381 [mEh]       0.01565875 [kcal/mol]       0.06551622 [kJ/mol]
      Elst10,r                      0.02495381 [mEh]       0.01565875 [kcal/mol]       0.06551622 [kJ/mol]

    Exchange                        0.00000345 [mEh]       0.00000216 [kcal/mol]       0.00000906 [kJ/mol]
      Exch10                        0.00000345 [mEh]       0.00000216 [kcal/mol]       0.00000906 [kJ/mol]
      Exch10(S^2)                   0.00000345 [mEh]       0.00000216 [kcal/mol]       0.00000906 [kJ/mol]

    Induction                      -0.00150293 [mEh]      -0.00094310 [kcal/mol]      -0.00394594 [kJ/mol]
      Ind20,r                      -0.00174837 [mEh]      -0.00109712 [kcal/mol]      -0.00459034 [kJ/mol]
      Exch-Ind20,r                  0.00001595 [mEh]       0.00001001 [kcal/mol]       0.00004187 [kJ/mol]
      delta HF,r (2)                0.00022949 [mEh]       0.00014401 [kcal/mol]       0.00060254 [kJ/mol]

    Dispersion                     -0.02907496 [mEh]      -0.01824481 [kcal/mol]      -0.07633629 [kJ/mol]
      Disp20                       -0.02907693 [mEh]      -0.01824605 [kcal/mol]      -0.07634146 [kJ/mol]
      Exch-Disp20                   0.00000197 [mEh]       0.00000124 [kcal/mol]       0.00000518 [kJ/mol]
      Disp20 (SS)                  -0.01453846 [mEh]      -0.00912302 [kcal/mol]      -0.03817073 [kJ/mol]
      Disp20 (OS)                  -0.01453846 [mEh]      -0.00912302 [kcal/mol]      -0.03817073 [kJ/mol]
      Exch-Disp20 (SS)              0.00000169 [mEh]       0.00000106 [kcal/mol]       0.00000443 [kJ/mol]
      Exch-Disp20 (OS)              0.00000028 [mEh]       0.00000018 [kcal/mol]       0.00000074 [kJ/mol]

  Total HF                          0.02345433 [mEh]       0.01471782 [kcal/mol]       0.06157934 [kJ/mol]
  Total SAPT0                      -0.00562063 [mEh]      -0.00352700 [kcal/mol]      -0.01475695 [kJ/mol]

  Special recipe for scaled SAPT0 (see Manual):
    Electrostatics sSAPT0           0.02495381 [mEh]       0.01565875 [kcal/mol]       0.06551622 [kJ/mol]
    Exchange sSAPT0                 0.00000345 [mEh]       0.00000216 [kcal/mol]       0.00000906 [kJ/mol]
    Induction sSAPT0               -0.00150293 [mEh]      -0.00094310 [kcal/mol]      -0.00394594 [kJ/mol]
    Dispersion sSAPT0              -0.02907496 [mEh]      -0.01824481 [kcal/mol]      -0.07633629 [kJ/mol]
  Total sSAPT0                     -0.00562063 [mEh]      -0.00352700 [kcal/mol]      -0.01475695 [kJ/mol]
  --------------------------------------------------------------------------------------------------------

*** Psi4 exiting successfully. Buy a developer a beer!
