                               Psi4 1.4rc3

  ==> Input File <==

--------------------------------------------------------------------------
# PSI4 file produced by CrystaLattE

# Generated from:               pyrazole.xyz
# Psithon input for N-mer:      2mer-0+36
# Number of atoms per monomer:  [9, 9]
# Number of replicas:           1
# COM priority:                 1.859012326534e-04
# Minimum COM separations:      9.272
# Separation priority:          2.602276551313e-04
# Minimum monomer separations:  8.289
# Cutoff priority:              1.661388746843e-05
# Nuclear repulsion energy:     405.9858686721295

memory 7 GB

molecule Dimer_0_36 {
  N            6.27981210      -4.25303372       0.19313865
  N            6.06870777      -2.28125697       1.80544317
  H            3.66871156      -5.64628941      -1.96684001
  H            0.69034521      -2.37545694      -0.42864236
  H            3.35917442       0.17650601       3.09265017
  H            7.35266782      -1.99461311       2.90680702
  C            3.77952586      -1.21508453       1.76858172
  C            2.38242998      -2.55505538       0.04607681
  C            4.01771468      -4.38410490      -0.88761863
--
  N            2.79813836       9.60054745     -11.21125683
  N            2.91700062       7.56264041     -12.74843055
  H            5.47130109      12.00145742     -10.49322648
  H            8.36593765       9.55891867     -13.24836399
  H            5.42951358       5.84586966     -15.15300030
  H            1.45459240       6.75266336     -13.13419588
  C            5.19983702       7.23246474     -13.77747940
  C            6.68282945       9.16213696     -12.88755693
  C            5.12152412      10.54730477     -11.29585899
units = au
no_com
no_reorient
}

set {
  e_convergence 10
  d_convergence 10
  scf_type df
  mp2_type df
  cc_type df
  freeze_core true
}

energy('sapt0/aug-cc-pvdz')

--------------------------------------------------------------------------

  //              Dimer HF             //
    Molecular point group: c1
  Charge       = 0
  Multiplicity = 1
  Basis Set: AUG-CC-PVDZ
    Blend: AUG-CC-PVDZ
  Basis Set: (AUG-CC-PVDZ AUX)
    Blend: AUG-CC-PVDZ-JKFIT
  @DF-RHF Final Energy:  -449.52483926517243
    Total Energy =                       -449.5248392651724316
  //            Monomer A HF           //
    Molecular point group: c1
  Multiplicity = 1
  Basis Set: AUG-CC-PVDZ
    Blend: AUG-CC-PVDZ
  Basis Set: (AUG-CC-PVDZ AUX)
    Blend: AUG-CC-PVDZ-JKFIT
  @DF-RHF Final Energy:  -224.76234482371046
    Total Energy =                       -224.7623448237104640
  //            Monomer B HF           //
    Molecular point group: c1

    Geometry (in Bohr), charge = 0, multiplicity = 1:

       Center              X                  Y                   Z               Mass
    ------------   -----------------  -----------------  -----------------  -----------------
      Gh(N)           6.279812100000    -4.253033720000     0.193138650000    14.003074004430
      Gh(N)           6.068707770000    -2.281256970000     1.805443170000    14.003074004430
      Gh(H)           3.668711560000    -5.646289410000    -1.966840010000     1.007825032230
      Gh(H)           0.690345210000    -2.375456940000    -0.428642360000     1.007825032230
      Gh(H)           3.359174420000     0.176506010000     3.092650170000     1.007825032230
      Gh(H)           7.352667820000    -1.994613110000     2.906807020000     1.007825032230
      Gh(C)           3.779525860000    -1.215084530000     1.768581720000    12.000000000000
      Gh(C)           2.382429980000    -2.555055380000     0.046076810000    12.000000000000
      Gh(C)           4.017714680000    -4.384104900000    -0.887618630000    12.000000000000
         N            2.798138360000     9.600547450000   -11.211256830000    14.003074004430
         N            2.917000620000     7.562640410000   -12.748430550000    14.003074004430
         H            5.471301090000    12.001457420000   -10.493226480000     1.007825032230
         H            8.365937650000     9.558918670000   -13.248363990000     1.007825032230
         H            5.429513580000     5.845869660000   -15.153000300000     1.007825032230
         H            1.454592400000     6.752663360000   -13.134195880000     1.007825032230
         C            5.199837020000     7.232464740000   -13.777479400000    12.000000000000
         C            6.682829450000     9.162136960000   -12.887556930000    12.000000000000
         C            5.121524120000    10.547304770000   -11.295858990000    12.000000000000

  Charge       = 0
  Multiplicity = 1
  Basis Set: AUG-CC-PVDZ
    Blend: AUG-CC-PVDZ
  Basis Set: (AUG-CC-PVDZ AUX)
    Blend: AUG-CC-PVDZ-JKFIT

    Orbital Energies [Eh]
    ---------------------

    Doubly Occupied:

       1A    -15.636234     2A    -15.592293     3A    -11.279903
       4A    -11.237757     5A    -11.209885     6A     -1.387002
       7A     -1.121894     8A     -1.066928     9A     -0.872760
      10A     -0.837040    11A     -0.757273    12A     -0.645746
      13A     -0.620829    14A     -0.609178    15A     -0.583906
      16A     -0.461414    17A     -0.370715    18A     -0.346055

  @DF-RHF Final Energy:  -224.76244097751595

   => Energetics <=

    Nuclear Repulsion Energy =            166.6286028798267012
    One-Electron Energy =                -633.5084634845436540
    Two-Electron Energy =                 242.1174196272010022
    Total Energy =                       -224.7624409775159506

  Dipole Moment: [D]
     X:     0.7394      Y:    -1.4336      Z:    -1.7870     Total:     2.4074

    SAPT Results
  --------------------------------------------------------------------------------------------------------
    Electrostatics                 -0.05143369 [mEh]      -0.03227513 [kcal/mol]      -0.13503912 [kJ/mol]
      Elst10,r                     -0.05143369 [mEh]      -0.03227513 [kcal/mol]      -0.13503912 [kJ/mol]

    Exchange                        0.00000342 [mEh]       0.00000215 [kcal/mol]       0.00000899 [kJ/mol]
      Exch10                        0.00000342 [mEh]       0.00000215 [kcal/mol]       0.00000899 [kJ/mol]
      Exch10(S^2)                   0.00000342 [mEh]       0.00000215 [kcal/mol]       0.00000899 [kJ/mol]

    Induction                      -0.00203368 [mEh]      -0.00127615 [kcal/mol]      -0.00533943 [kJ/mol]
      Ind20,r                      -0.00221385 [mEh]      -0.00138921 [kcal/mol]      -0.00581247 [kJ/mol]
      Exch-Ind20,r                  0.00001449 [mEh]       0.00000909 [kcal/mol]       0.00003804 [kJ/mol]
      delta HF,r (2)                0.00016568 [mEh]       0.00010397 [kcal/mol]       0.00043500 [kJ/mol]

    Dispersion                     -0.03423888 [mEh]      -0.02148522 [kcal/mol]      -0.08989417 [kJ/mol]
      Disp20                       -0.03424058 [mEh]      -0.02148629 [kcal/mol]      -0.08989862 [kJ/mol]
      Exch-Disp20                   0.00000169 [mEh]       0.00000106 [kcal/mol]       0.00000445 [kJ/mol]
      Disp20 (SS)                  -0.01712029 [mEh]      -0.01074314 [kcal/mol]      -0.04494931 [kJ/mol]
      Disp20 (OS)                  -0.01712029 [mEh]      -0.01074314 [kcal/mol]      -0.04494931 [kJ/mol]
      Exch-Disp20 (SS)              0.00000143 [mEh]       0.00000090 [kcal/mol]       0.00000375 [kJ/mol]
      Exch-Disp20 (OS)              0.00000027 [mEh]       0.00000017 [kcal/mol]       0.00000070 [kJ/mol]

  Total HF                         -0.05346395 [mEh]      -0.03354913 [kcal/mol]      -0.14036957 [kJ/mol]
  Total SAPT0                      -0.08770283 [mEh]      -0.05503436 [kcal/mol]      -0.23026374 [kJ/mol]

  Special recipe for scaled SAPT0 (see Manual):
    Electrostatics sSAPT0          -0.05143369 [mEh]      -0.03227513 [kcal/mol]      -0.13503912 [kJ/mol]
    Exchange sSAPT0                 0.00000342 [mEh]       0.00000215 [kcal/mol]       0.00000899 [kJ/mol]
    Induction sSAPT0               -0.00203368 [mEh]      -0.00127615 [kcal/mol]      -0.00533943 [kJ/mol]
    Dispersion sSAPT0              -0.03423888 [mEh]      -0.02148522 [kcal/mol]      -0.08989417 [kJ/mol]
  Total sSAPT0                     -0.08770283 [mEh]      -0.05503436 [kcal/mol]      -0.23026374 [kJ/mol]
  --------------------------------------------------------------------------------------------------------

*** Psi4 exiting successfully. Buy a developer a beer!
