                               Psi4 1.4rc3

  ==> Input File <==

--------------------------------------------------------------------------
# PSI4 file produced by CrystaLattE

# Generated from:               pyrazole.xyz
# Psithon input for N-mer:      2mer-0+413
# Number of atoms per monomer:  [9, 9]
# Number of replicas:           1
# COM priority:                 2.169003664309e-05
# Minimum COM separations:      18.975
# Separation priority:          3.600067143490e-05
# Minimum monomer separations:  16.026
# Cutoff priority:              1.188723370083e-06
# Nuclear repulsion energy:     369.3511955218253

memory 7 GB

molecule Dimer_0_413 {
  N            6.27981210      -4.25303372       0.19313865
  N            6.06870777      -2.28125697       1.80544317
  H            3.66871156      -5.64628941      -1.96684001
  H            0.69034521      -2.37545694      -0.42864236
  H            3.35917442       0.17650601       3.09265017
  H            7.35266782      -1.99461311       2.90680702
  C            3.77952586      -1.21508453       1.76858172
  C            2.38242998      -2.55505538       0.04607681
  C            4.01771468      -4.38410490      -0.88761863
--
  N            2.79813836     -37.97519749       1.58785821
  N            2.91700062     -40.01310452       0.05068450
  H            5.47130109     -35.57428752       2.30588857
  H            8.36593765     -38.01682626      -0.44924894
  H            5.42951358     -41.72987528      -2.35388525
  H            1.45459240     -40.82308158      -0.33508083
  C            5.19983702     -40.34328019      -0.97836435
  C            6.68282945     -38.41360798      -0.08844188
  C            5.12152412     -37.02844016       1.50325606
units = au
no_com
no_reorient
}

set {
  e_convergence 10
  d_convergence 10
  scf_type df
  mp2_type df
  cc_type df
  freeze_core true
}

energy('sapt0/aug-cc-pvdz')

--------------------------------------------------------------------------

  //              Dimer HF             //
    Molecular point group: c1
  Charge       = 0
  Multiplicity = 1
  Basis Set: AUG-CC-PVDZ
    Blend: AUG-CC-PVDZ
  Basis Set: (AUG-CC-PVDZ AUX)
    Blend: AUG-CC-PVDZ-JKFIT
  @DF-RHF Final Energy:  -449.52477197995631
    Total Energy =                       -449.5247719799563129
  //            Monomer A HF           //
    Molecular point group: c1
  Multiplicity = 1
  Basis Set: AUG-CC-PVDZ
    Blend: AUG-CC-PVDZ
  Basis Set: (AUG-CC-PVDZ AUX)
    Blend: AUG-CC-PVDZ-JKFIT
  @DF-RHF Final Energy:  -224.76233952196694
    Total Energy =                       -224.7623395219669362
  //            Monomer B HF           //
    Molecular point group: c1

    Geometry (in Bohr), charge = 0, multiplicity = 1:

       Center              X                  Y                   Z               Mass
    ------------   -----------------  -----------------  -----------------  -----------------
      Gh(N)           6.279812100000    -4.253033720000     0.193138650000    14.003074004430
      Gh(N)           6.068707770000    -2.281256970000     1.805443170000    14.003074004430
      Gh(H)           3.668711560000    -5.646289410000    -1.966840010000     1.007825032230
      Gh(H)           0.690345210000    -2.375456940000    -0.428642360000     1.007825032230
      Gh(H)           3.359174420000     0.176506010000     3.092650170000     1.007825032230
      Gh(H)           7.352667820000    -1.994613110000     2.906807020000     1.007825032230
      Gh(C)           3.779525860000    -1.215084530000     1.768581720000    12.000000000000
      Gh(C)           2.382429980000    -2.555055380000     0.046076810000    12.000000000000
      Gh(C)           4.017714680000    -4.384104900000    -0.887618630000    12.000000000000
         N            2.798138360000   -37.975197490000     1.587858210000    14.003074004430
         N            2.917000620000   -40.013104520000     0.050684500000    14.003074004430
         H            5.471301090000   -35.574287520000     2.305888570000     1.007825032230
         H            8.365937650000   -38.016826260000    -0.449248940000     1.007825032230
         H            5.429513580000   -41.729875280000    -2.353885250000     1.007825032230
         H            1.454592400000   -40.823081580000    -0.335080830000     1.007825032230
         C            5.199837020000   -40.343280190000    -0.978364350000    12.000000000000
         C            6.682829450000   -38.413607980000    -0.088441880000    12.000000000000
         C            5.121524120000   -37.028440160000     1.503256060000    12.000000000000

  Charge       = 0
  Multiplicity = 1
  Basis Set: AUG-CC-PVDZ
    Blend: AUG-CC-PVDZ
  Basis Set: (AUG-CC-PVDZ AUX)
    Blend: AUG-CC-PVDZ-JKFIT

    Orbital Energies [Eh]
    ---------------------

    Doubly Occupied:

       1A    -15.636233     2A    -15.592291     3A    -11.279903
       4A    -11.237759     5A    -11.209884     6A     -1.387001
       7A     -1.121894     8A     -1.066928     9A     -0.872759
      10A     -0.837039    11A     -0.757272    12A     -0.645745
      13A     -0.620828    14A     -0.609177    15A     -0.583905
      16A     -0.461413    17A     -0.370715    18A     -0.346055

  @DF-RHF Final Energy:  -224.76243506536764

   => Energetics <=

    Nuclear Repulsion Energy =            166.6286030133970826
    One-Electron Energy =                -633.5084738164380269
    Two-Electron Energy =                 242.1174357376733042
    Total Energy =                       -224.7624350653676402

  Dipole Moment: [D]
     X:     0.7394      Y:    -1.4336      Z:    -1.7871     Total:     2.4074

    SAPT Results
  --------------------------------------------------------------------------------------------------------
    Electrostatics                  0.00256854 [mEh]       0.00161178 [kcal/mol]       0.00674370 [kJ/mol]
      Elst10,r                      0.00256854 [mEh]       0.00161178 [kcal/mol]       0.00674370 [kJ/mol]

    Exchange                        0.00000000 [mEh]       0.00000000 [kcal/mol]       0.00000000 [kJ/mol]
      Exch10                        0.00000000 [mEh]       0.00000000 [kcal/mol]       0.00000000 [kJ/mol]
      Exch10(S^2)                   0.00000000 [mEh]       0.00000000 [kcal/mol]       0.00000000 [kJ/mol]

    Induction                       0.00003884 [mEh]       0.00002437 [kcal/mol]       0.00010197 [kJ/mol]
      Ind20,r                      -0.00003510 [mEh]      -0.00002203 [kcal/mol]      -0.00009216 [kJ/mol]
      Exch-Ind20,r                  0.00000000 [mEh]       0.00000000 [kcal/mol]       0.00000000 [kJ/mol]
      delta HF,r (2)                0.00007394 [mEh]       0.00004640 [kcal/mol]       0.00019413 [kJ/mol]

    Dispersion                     -0.00054169 [mEh]      -0.00033992 [kcal/mol]      -0.00142222 [kJ/mol]
      Disp20                       -0.00054169 [mEh]      -0.00033992 [kcal/mol]      -0.00142222 [kJ/mol]
      Exch-Disp20                   0.00000000 [mEh]       0.00000000 [kcal/mol]       0.00000000 [kJ/mol]
      Disp20 (SS)                  -0.00027085 [mEh]      -0.00016996 [kcal/mol]      -0.00071111 [kJ/mol]
      Disp20 (OS)                  -0.00027085 [mEh]      -0.00016996 [kcal/mol]      -0.00071111 [kJ/mol]
      Exch-Disp20 (SS)              0.00000000 [mEh]       0.00000000 [kcal/mol]       0.00000000 [kJ/mol]
      Exch-Disp20 (OS)              0.00000000 [mEh]       0.00000000 [kcal/mol]       0.00000000 [kJ/mol]

  Total HF                          0.00260738 [mEh]       0.00163615 [kcal/mol]       0.00684567 [kJ/mol]
  Total SAPT0                       0.00206568 [mEh]       0.00129624 [kcal/mol]       0.00542345 [kJ/mol]

  Special recipe for scaled SAPT0 (see Manual):
    Electrostatics sSAPT0           0.00256854 [mEh]       0.00161178 [kcal/mol]       0.00674370 [kJ/mol]
    Exchange sSAPT0                 0.00000000 [mEh]       0.00000000 [kcal/mol]       0.00000000 [kJ/mol]
    Induction sSAPT0                0.00003884 [mEh]       0.00002437 [kcal/mol]       0.00010197 [kJ/mol]
    Dispersion sSAPT0              -0.00054169 [mEh]      -0.00033992 [kcal/mol]      -0.00142222 [kJ/mol]
  Total sSAPT0                      0.00206568 [mEh]       0.00129624 [kcal/mol]       0.00542345 [kJ/mol]
  --------------------------------------------------------------------------------------------------------

*** Psi4 exiting successfully. Buy a developer a beer!
