                               Psi4 1.4rc3

  ==> Input File <==

--------------------------------------------------------------------------
# PSI4 file produced by CrystaLattE

# Generated from:               pyrazole.xyz
# Psithon input for N-mer:      2mer-0+345
# Number of atoms per monomer:  [9, 9]
# Number of replicas:           2
# COM priority:                 1.442160684344e-05
# Minimum COM separations:      21.740
# Separation priority:          2.225888194090e-05
# Minimum monomer separations:  18.812
# Cutoff priority:              6.261395373722e-07
# Nuclear repulsion energy:     364.823797080541

memory 7 GB

molecule Dimer_0_345 {
  N            6.27981210      -4.25303372       0.19313865
  N            6.06870777      -2.28125697       1.80544317
  H            3.66871156      -5.64628941      -1.96684001
  H            0.69034521      -2.37545694      -0.42864236
  H            3.35917442       0.17650601       3.09265017
  H            7.35266782      -1.99461311       2.90680702
  C            3.77952586      -1.21508453       1.76858172
  C            2.38242998      -2.55505538       0.04607681
  C            4.01771468      -4.38410490      -0.88761863
--
  N          -24.67390184      19.53483875     -12.60597640
  N          -24.88500617      21.50661550     -10.99367188
  H          -27.28500238      18.14158306     -14.76595506
  H          -30.26336873      21.41241552     -13.22775741
  H          -27.59453951      23.96437848      -9.70646488
  H          -23.60104611      21.79325936      -9.89230803
  C          -27.17418808      22.57278794     -11.03053333
  C          -28.57128396      21.23281709     -12.75303823
  C          -26.93599925      19.40376757     -13.68673368
units = au
no_com
no_reorient
}

set {
  e_convergence 10
  d_convergence 10
  scf_type df
  mp2_type df
  cc_type df
  freeze_core true
}

energy('sapt0/aug-cc-pvdz')

--------------------------------------------------------------------------

  //              Dimer HF             //
    Molecular point group: c1
  Charge       = 0
  Multiplicity = 1
  Basis Set: AUG-CC-PVDZ
    Blend: AUG-CC-PVDZ
  Basis Set: (AUG-CC-PVDZ AUX)
    Blend: AUG-CC-PVDZ-JKFIT
  @DF-RHF Final Energy:  -449.52467601433290
    Total Energy =                       -449.5246760143329539
  //            Monomer A HF           //
    Molecular point group: c1
  Multiplicity = 1
  Basis Set: AUG-CC-PVDZ
    Blend: AUG-CC-PVDZ
  Basis Set: (AUG-CC-PVDZ AUX)
    Blend: AUG-CC-PVDZ-JKFIT
  @DF-RHF Final Energy:  -224.76233952056000
    Total Energy =                       -224.7623395205600048
  //            Monomer B HF           //
    Molecular point group: c1

    Geometry (in Bohr), charge = 0, multiplicity = 1:

       Center              X                  Y                   Z               Mass
    ------------   -----------------  -----------------  -----------------  -----------------
      Gh(N)           6.279812100000    -4.253033720000     0.193138650000    14.003074004430
      Gh(N)           6.068707770000    -2.281256970000     1.805443170000    14.003074004430
      Gh(H)           3.668711560000    -5.646289410000    -1.966840010000     1.007825032230
      Gh(H)           0.690345210000    -2.375456940000    -0.428642360000     1.007825032230
      Gh(H)           3.359174420000     0.176506010000     3.092650170000     1.007825032230
      Gh(H)           7.352667820000    -1.994613110000     2.906807020000     1.007825032230
      Gh(C)           3.779525860000    -1.215084530000     1.768581720000    12.000000000000
      Gh(C)           2.382429980000    -2.555055380000     0.046076810000    12.000000000000
      Gh(C)           4.017714680000    -4.384104900000    -0.887618630000    12.000000000000
         N          -24.673901840000    19.534838750000   -12.605976400000    14.003074004430
         N          -24.885006170000    21.506615500000   -10.993671880000    14.003074004430
         H          -27.285002380000    18.141583060000   -14.765955060000     1.007825032230
         H          -30.263368730000    21.412415520000   -13.227757410000     1.007825032230
         H          -27.594539510000    23.964378480000    -9.706464880000     1.007825032230
         H          -23.601046110000    21.793259360000    -9.892308030000     1.007825032230
         C          -27.174188080000    22.572787940000   -11.030533330000    12.000000000000
         C          -28.571283960000    21.232817090000   -12.753038230000    12.000000000000
         C          -26.935999250000    19.403767570000   -13.686733680000    12.000000000000

  Charge       = 0
  Multiplicity = 1
  Basis Set: AUG-CC-PVDZ
    Blend: AUG-CC-PVDZ
  Basis Set: (AUG-CC-PVDZ AUX)
    Blend: AUG-CC-PVDZ-JKFIT

    Orbital Energies [Eh]
    ---------------------

    Doubly Occupied:

       1A    -15.636223     2A    -15.592313     3A    -11.279894
       4A    -11.237784     5A    -11.209891     6A     -1.386922
       7A     -1.121901     8A     -1.066898     9A     -0.872768
      10A     -0.837061    11A     -0.757292    12A     -0.645746
      13A     -0.620834    14A     -0.609140    15A     -0.583920
      16A     -0.461404    17A     -0.370721    18A     -0.346048

  @DF-RHF Final Energy:  -224.76233952315758

   => Energetics <=

    Nuclear Repulsion Energy =            166.6240564925665240
    One-Electron Energy =                -633.4992734796182958
    Two-Electron Energy =                 242.1128774638941934
    Total Energy =                       -224.7623395231575785

  Dipole Moment: [D]
     X:    -1.0235      Y:     1.6055      Z:     1.4733     Total:     2.4075

    SAPT Results
  --------------------------------------------------------------------------------------------------------
    Electrostatics                  0.00298912 [mEh]       0.00187570 [kcal/mol]       0.00784793 [kJ/mol]
      Elst10,r                      0.00298912 [mEh]       0.00187570 [kcal/mol]       0.00784793 [kJ/mol]

    Exchange                        0.00000000 [mEh]       0.00000000 [kcal/mol]       0.00000000 [kJ/mol]
      Exch10                        0.00000000 [mEh]       0.00000000 [kcal/mol]       0.00000000 [kJ/mol]
      Exch10(S^2)                   0.00000000 [mEh]       0.00000000 [kcal/mol]       0.00000000 [kJ/mol]

    Induction                       0.00004027 [mEh]       0.00002527 [kcal/mol]       0.00010572 [kJ/mol]
      Ind20,r                      -0.00001699 [mEh]      -0.00001066 [kcal/mol]      -0.00004459 [kJ/mol]
      Exch-Ind20,r                  0.00000000 [mEh]       0.00000000 [kcal/mol]       0.00000000 [kJ/mol]
      delta HF,r (2)                0.00005725 [mEh]       0.00003593 [kcal/mol]       0.00015031 [kJ/mol]

    Dispersion                     -0.00025741 [mEh]      -0.00016153 [kcal/mol]      -0.00067582 [kJ/mol]
      Disp20                       -0.00025741 [mEh]      -0.00016153 [kcal/mol]      -0.00067582 [kJ/mol]
      Exch-Disp20                   0.00000000 [mEh]       0.00000000 [kcal/mol]       0.00000000 [kJ/mol]
      Disp20 (SS)                  -0.00012870 [mEh]      -0.00008076 [kcal/mol]      -0.00033791 [kJ/mol]
      Disp20 (OS)                  -0.00012870 [mEh]      -0.00008076 [kcal/mol]      -0.00033791 [kJ/mol]
      Exch-Disp20 (SS)              0.00000000 [mEh]       0.00000000 [kcal/mol]       0.00000000 [kJ/mol]
      Exch-Disp20 (OS)              0.00000000 [mEh]       0.00000000 [kcal/mol]       0.00000000 [kJ/mol]

  Total HF                          0.00302938 [mEh]       0.00190097 [kcal/mol]       0.00795365 [kJ/mol]
  Total SAPT0                       0.00277198 [mEh]       0.00173944 [kcal/mol]       0.00727783 [kJ/mol]

  Special recipe for scaled SAPT0 (see Manual):
    Electrostatics sSAPT0           0.00298912 [mEh]       0.00187570 [kcal/mol]       0.00784793 [kJ/mol]
    Exchange sSAPT0                 0.00000000 [mEh]       0.00000000 [kcal/mol]       0.00000000 [kJ/mol]
    Induction sSAPT0                0.00004027 [mEh]       0.00002527 [kcal/mol]       0.00010572 [kJ/mol]
    Dispersion sSAPT0              -0.00025741 [mEh]      -0.00016153 [kcal/mol]      -0.00067582 [kJ/mol]
  Total sSAPT0                      0.00277198 [mEh]       0.00173944 [kcal/mol]       0.00727783 [kJ/mol]
  --------------------------------------------------------------------------------------------------------

*** Psi4 exiting successfully. Buy a developer a beer!
