                               Psi4 1.4rc3

  ==> Input File <==

--------------------------------------------------------------------------
# PSI4 file produced by CrystaLattE

# Generated from:               pyrazole.xyz
# Psithon input for N-mer:      2mer-0+264
# Number of atoms per monomer:  [9, 9]
# Number of replicas:           2
# COM priority:                 2.150228340696e-05
# Minimum COM separations:      19.030
# Separation priority:          3.176675779099e-05
# Minimum monomer separations:  16.709
# Cutoff priority:              1.006075382123e-06
# Nuclear repulsion energy:     369.24478678116225

memory 7 GB

molecule Dimer_0_264 {
  N            6.27981210      -4.25303372       0.19313865
  N            6.06870777      -2.28125697       1.80544317
  H            3.66871156      -5.64628941      -1.96684001
  H            0.69034521      -2.37545694      -0.42864236
  H            3.35917442       0.17650601       3.09265017
  H            7.35266782      -1.99461311       2.90680702
  C            3.77952586      -1.21508453       1.76858172
  C            2.38242998      -2.55505538       0.04607681
  C            4.01771468      -4.38410490      -0.88761863
--
  N          -16.93547335       4.36055490     -25.74529193
  N          -17.14657768       2.38877815     -27.35759645
  H          -19.54657389       5.75381059     -23.58531327
  H          -22.52494025       2.48297813     -25.12351092
  H          -19.85611103      -0.06898483     -28.64480345
  H          -15.86261763       2.10213429     -28.45896030
  C          -19.43575960       1.32260571     -27.32073500
  C          -20.83285547       2.66257657     -25.59823010
  C          -19.19757077       4.49162608     -24.66453465
units = au
no_com
no_reorient
}

set {
  e_convergence 10
  d_convergence 10
  scf_type df
  mp2_type df
  cc_type df
  freeze_core true
}

energy('sapt0/aug-cc-pvdz')

--------------------------------------------------------------------------

  //              Dimer HF             //
    Molecular point group: c1
  Charge       = 0
  Multiplicity = 1
  Basis Set: AUG-CC-PVDZ
    Blend: AUG-CC-PVDZ
  Basis Set: (AUG-CC-PVDZ AUX)
    Blend: AUG-CC-PVDZ-JKFIT
  @DF-RHF Final Energy:  -449.52468588995498
    Total Energy =                       -449.5246858899549807
  //            Monomer A HF           //
    Molecular point group: c1
  Multiplicity = 1
  Basis Set: AUG-CC-PVDZ
    Blend: AUG-CC-PVDZ
  Basis Set: (AUG-CC-PVDZ AUX)
    Blend: AUG-CC-PVDZ-JKFIT
  @DF-RHF Final Energy:  -224.76233952003261
    Total Energy =                       -224.7623395200326115
  //            Monomer B HF           //
    Molecular point group: c1

    Geometry (in Bohr), charge = 0, multiplicity = 1:

       Center              X                  Y                   Z               Mass
    ------------   -----------------  -----------------  -----------------  -----------------
      Gh(N)           6.279812100000    -4.253033720000     0.193138650000    14.003074004430
      Gh(N)           6.068707770000    -2.281256970000     1.805443170000    14.003074004430
      Gh(H)           3.668711560000    -5.646289410000    -1.966840010000     1.007825032230
      Gh(H)           0.690345210000    -2.375456940000    -0.428642360000     1.007825032230
      Gh(H)           3.359174420000     0.176506010000     3.092650170000     1.007825032230
      Gh(H)           7.352667820000    -1.994613110000     2.906807020000     1.007825032230
      Gh(C)           3.779525860000    -1.215084530000     1.768581720000    12.000000000000
      Gh(C)           2.382429980000    -2.555055380000     0.046076810000    12.000000000000
      Gh(C)           4.017714680000    -4.384104900000    -0.887618630000    12.000000000000
         N          -16.935473350000     4.360554900000   -25.745291930000    14.003074004430
         N          -17.146577680000     2.388778150000   -27.357596450000    14.003074004430
         H          -19.546573890000     5.753810590000   -23.585313270000     1.007825032230
         H          -22.524940250000     2.482978130000   -25.123510920000     1.007825032230
         H          -19.856111030000    -0.068984830000   -28.644803450000     1.007825032230
         H          -15.862617630000     2.102134290000   -28.458960300000     1.007825032230
         C          -19.435759600000     1.322605710000   -27.320735000000    12.000000000000
         C          -20.832855470000     2.662576570000   -25.598230100000    12.000000000000
         C          -19.197570770000     4.491626080000   -24.664534650000    12.000000000000

  Charge       = 0
  Multiplicity = 1
  Basis Set: AUG-CC-PVDZ
    Blend: AUG-CC-PVDZ
  Basis Set: (AUG-CC-PVDZ AUX)
    Blend: AUG-CC-PVDZ-JKFIT

    Orbital Energies [Eh]
    ---------------------

    Doubly Occupied:

       1A    -15.636223     2A    -15.592313     3A    -11.279894
       4A    -11.237784     5A    -11.209891     6A     -1.386922
       7A     -1.121901     8A     -1.066898     9A     -0.872768
      10A     -0.837061    11A     -0.757292    12A     -0.645746
      13A     -0.620834    14A     -0.609140    15A     -0.583920
      16A     -0.461404    17A     -0.370721    18A     -0.346048

  @DF-RHF Final Energy:  -224.76233952384101

   => Energetics <=

    Nuclear Repulsion Energy =            166.6240564213030950
    One-Electron Energy =                -633.4992733448679019
    Two-Electron Energy =                 242.1128773997238284
    Total Energy =                       -224.7623395238410069

  Dipole Moment: [D]
     X:    -1.0235      Y:    -1.6055      Z:    -1.4733     Total:     2.4075

    SAPT Results
  --------------------------------------------------------------------------------------------------------
    Electrostatics                 -0.00689492 [mEh]      -0.00432663 [kcal/mol]      -0.01810261 [kJ/mol]
      Elst10,r                     -0.00689492 [mEh]      -0.00432663 [kcal/mol]      -0.01810261 [kJ/mol]

    Exchange                        0.00000000 [mEh]       0.00000000 [kcal/mol]       0.00000000 [kJ/mol]
      Exch10                        0.00000000 [mEh]       0.00000000 [kcal/mol]       0.00000000 [kJ/mol]
      Exch10(S^2)                   0.00000000 [mEh]       0.00000000 [kcal/mol]       0.00000000 [kJ/mol]

    Induction                       0.00004884 [mEh]       0.00003065 [kcal/mol]       0.00012822 [kJ/mol]
      Ind20,r                      -0.00003420 [mEh]      -0.00002146 [kcal/mol]      -0.00008980 [kJ/mol]
      Exch-Ind20,r                  0.00000000 [mEh]       0.00000000 [kcal/mol]       0.00000000 [kJ/mol]
      delta HF,r (2)                0.00008304 [mEh]       0.00005211 [kcal/mol]       0.00021802 [kJ/mol]

    Dispersion                     -0.00052219 [mEh]      -0.00032768 [kcal/mol]      -0.00137101 [kJ/mol]
      Disp20                       -0.00052219 [mEh]      -0.00032768 [kcal/mol]      -0.00137101 [kJ/mol]
      Exch-Disp20                   0.00000000 [mEh]       0.00000000 [kcal/mol]       0.00000000 [kJ/mol]
      Disp20 (SS)                  -0.00026110 [mEh]      -0.00016384 [kcal/mol]      -0.00068551 [kJ/mol]
      Disp20 (OS)                  -0.00026110 [mEh]      -0.00016384 [kcal/mol]      -0.00068551 [kJ/mol]
      Exch-Disp20 (SS)              0.00000000 [mEh]       0.00000000 [kcal/mol]       0.00000000 [kJ/mol]
      Exch-Disp20 (OS)              0.00000000 [mEh]       0.00000000 [kcal/mol]       0.00000000 [kJ/mol]

  Total HF                         -0.00684608 [mEh]      -0.00429598 [kcal/mol]      -0.01797438 [kJ/mol]
  Total SAPT0                      -0.00736827 [mEh]      -0.00462366 [kcal/mol]      -0.01934539 [kJ/mol]

  Special recipe for scaled SAPT0 (see Manual):
    Electrostatics sSAPT0          -0.00689492 [mEh]      -0.00432663 [kcal/mol]      -0.01810261 [kJ/mol]
    Exchange sSAPT0                 0.00000000 [mEh]       0.00000000 [kcal/mol]       0.00000000 [kJ/mol]
    Induction sSAPT0                0.00004884 [mEh]       0.00003065 [kcal/mol]       0.00012822 [kJ/mol]
    Dispersion sSAPT0              -0.00052219 [mEh]      -0.00032768 [kcal/mol]      -0.00137101 [kJ/mol]
  Total sSAPT0                     -0.00736827 [mEh]      -0.00462366 [kcal/mol]      -0.01934539 [kJ/mol]
  --------------------------------------------------------------------------------------------------------

*** Psi4 exiting successfully. Buy a developer a beer!
