                               Psi4 1.4rc3

  ==> Input File <==

--------------------------------------------------------------------------
# PSI4 file produced by CrystaLattE

# Generated from:               pyrazole.xyz
# Psithon input for N-mer:      2mer-0+441
# Number of atoms per monomer:  [9, 9]
# Number of replicas:           1
# COM priority:                 1.570786873504e-05
# Minimum COM separations:      21.130
# Separation priority:          2.660136845858e-05
# Minimum monomer separations:  17.727
# Cutoff priority:              7.940941041949e-07
# Nuclear repulsion energy:     365.76754519330956

memory 7 GB

molecule Dimer_0_441 {
  N            6.27981210      -4.25303372       0.19313865
  N            6.06870777      -2.28125697       1.80544317
  H            3.66871156      -5.64628941      -1.96684001
  H            0.69034521      -2.37545694      -0.42864236
  H            3.35917442       0.17650601       3.09265017
  H            7.35266782      -1.99461311       2.90680702
  C            3.77952586      -1.21508453       1.76858172
  C            2.38242998      -2.55505538       0.04607681
  C            4.01771468      -4.38410490      -0.88761863
--
  N            2.79813836       9.60054745      39.98520336
  N            2.91700062       7.56264041      38.44802964
  H            5.47130109      12.00145742      40.70323371
  H            8.36593765       9.55891867      37.94809621
  H            5.42951358       5.84586966      36.04345989
  H            1.45459240       6.75266336      38.06226431
  C            5.19983702       7.23246474      37.41898079
  C            6.68282945       9.16213696      38.30890326
  C            5.12152412      10.54730477      39.90060121
units = au
no_com
no_reorient
}

set {
  e_convergence 10
  d_convergence 10
  scf_type df
  mp2_type df
  cc_type df
  freeze_core true
}

energy('sapt0/aug-cc-pvdz')

--------------------------------------------------------------------------

  //              Dimer HF             //
    Molecular point group: c1
  Charge       = 0
  Multiplicity = 1
  Basis Set: AUG-CC-PVDZ
    Blend: AUG-CC-PVDZ
  Basis Set: (AUG-CC-PVDZ AUX)
    Blend: AUG-CC-PVDZ-JKFIT
  @DF-RHF Final Energy:  -449.52475749159828
    Total Energy =                       -449.5247574915982796
  //            Monomer A HF           //
    Molecular point group: c1
  Multiplicity = 1
  Basis Set: AUG-CC-PVDZ
    Blend: AUG-CC-PVDZ
  Basis Set: (AUG-CC-PVDZ AUX)
    Blend: AUG-CC-PVDZ-JKFIT
  @DF-RHF Final Energy:  -224.76233952134658
    Total Energy =                       -224.7623395213465756
  //            Monomer B HF           //
    Molecular point group: c1

    Geometry (in Bohr), charge = 0, multiplicity = 1:

       Center              X                  Y                   Z               Mass
    ------------   -----------------  -----------------  -----------------  -----------------
      Gh(N)           6.279812100000    -4.253033720000     0.193138650000    14.003074004430
      Gh(N)           6.068707770000    -2.281256970000     1.805443170000    14.003074004430
      Gh(H)           3.668711560000    -5.646289410000    -1.966840010000     1.007825032230
      Gh(H)           0.690345210000    -2.375456940000    -0.428642360000     1.007825032230
      Gh(H)           3.359174420000     0.176506010000     3.092650170000     1.007825032230
      Gh(H)           7.352667820000    -1.994613110000     2.906807020000     1.007825032230
      Gh(C)           3.779525860000    -1.215084530000     1.768581720000    12.000000000000
      Gh(C)           2.382429980000    -2.555055380000     0.046076810000    12.000000000000
      Gh(C)           4.017714680000    -4.384104900000    -0.887618630000    12.000000000000
         N            2.798138360000     9.600547450000    39.985203360000    14.003074004430
         N            2.917000620000     7.562640410000    38.448029640000    14.003074004430
         H            5.471301090000    12.001457420000    40.703233710000     1.007825032230
         H            8.365937650000     9.558918670000    37.948096210000     1.007825032230
         H            5.429513580000     5.845869660000    36.043459890000     1.007825032230
         H            1.454592400000     6.752663360000    38.062264310000     1.007825032230
         C            5.199837020000     7.232464740000    37.418980790000    12.000000000000
         C            6.682829450000     9.162136960000    38.308903260000    12.000000000000
         C            5.121524120000    10.547304770000    39.900601210000    12.000000000000

  Charge       = 0
  Multiplicity = 1
  Basis Set: AUG-CC-PVDZ
    Blend: AUG-CC-PVDZ
  Basis Set: (AUG-CC-PVDZ AUX)
    Blend: AUG-CC-PVDZ-JKFIT

    Orbital Energies [Eh]
    ---------------------

    Doubly Occupied:

       1A    -15.636233     2A    -15.592291     3A    -11.279903
       4A    -11.237759     5A    -11.209884     6A     -1.387001
       7A     -1.121894     8A     -1.066928     9A     -0.872759
      10A     -0.837039    11A     -0.757272    12A     -0.645745
      13A     -0.620828    14A     -0.609177    15A     -0.583905
      16A     -0.461413    17A     -0.370715    18A     -0.346055

  @DF-RHF Final Energy:  -224.76243506380379

   => Energetics <=

    Nuclear Repulsion Energy =            166.6286028407669448
    One-Electron Energy =                -633.5084734729919091
    Two-Electron Energy =                 242.1174355684212003
    Total Energy =                       -224.7624350638037924

  Dipole Moment: [D]
     X:     0.7394      Y:    -1.4336      Z:    -1.7871     Total:     2.4074

    SAPT Results
  --------------------------------------------------------------------------------------------------------
    Electrostatics                  0.01708283 [mEh]       0.01071964 [kcal/mol]       0.04485096 [kJ/mol]
      Elst10,r                      0.01708283 [mEh]       0.01071964 [kcal/mol]       0.04485096 [kJ/mol]

    Exchange                        0.00000000 [mEh]       0.00000000 [kcal/mol]       0.00000000 [kJ/mol]
      Exch10                        0.00000000 [mEh]       0.00000000 [kcal/mol]       0.00000000 [kJ/mol]
      Exch10(S^2)                   0.00000000 [mEh]       0.00000000 [kcal/mol]       0.00000000 [kJ/mol]

    Induction                       0.00001072 [mEh]       0.00000673 [kcal/mol]       0.00002816 [kJ/mol]
      Ind20,r                      -0.00003264 [mEh]      -0.00002048 [kcal/mol]      -0.00008571 [kJ/mol]
      Exch-Ind20,r                  0.00000000 [mEh]       0.00000000 [kcal/mol]       0.00000000 [kJ/mol]
      delta HF,r (2)                0.00004337 [mEh]       0.00002721 [kcal/mol]       0.00011387 [kJ/mol]

    Dispersion                     -0.00029501 [mEh]      -0.00018512 [kcal/mol]      -0.00077455 [kJ/mol]
      Disp20                       -0.00029501 [mEh]      -0.00018512 [kcal/mol]      -0.00077455 [kJ/mol]
      Exch-Disp20                   0.00000000 [mEh]       0.00000000 [kcal/mol]       0.00000000 [kJ/mol]
      Disp20 (SS)                  -0.00014751 [mEh]      -0.00009256 [kcal/mol]      -0.00038727 [kJ/mol]
      Disp20 (OS)                  -0.00014751 [mEh]      -0.00009256 [kcal/mol]      -0.00038727 [kJ/mol]
      Exch-Disp20 (SS)              0.00000000 [mEh]       0.00000000 [kcal/mol]       0.00000000 [kJ/mol]
      Exch-Disp20 (OS)              0.00000000 [mEh]       0.00000000 [kcal/mol]       0.00000000 [kJ/mol]

  Total HF                          0.01709355 [mEh]       0.01072637 [kcal/mol]       0.04487911 [kJ/mol]
  Total SAPT0                       0.01679854 [mEh]       0.01054124 [kcal/mol]       0.04410457 [kJ/mol]

  Special recipe for scaled SAPT0 (see Manual):
    Electrostatics sSAPT0           0.01708283 [mEh]       0.01071964 [kcal/mol]       0.04485096 [kJ/mol]
    Exchange sSAPT0                 0.00000000 [mEh]       0.00000000 [kcal/mol]       0.00000000 [kJ/mol]
    Induction sSAPT0                0.00001072 [mEh]       0.00000673 [kcal/mol]       0.00002816 [kJ/mol]
    Dispersion sSAPT0              -0.00029501 [mEh]      -0.00018512 [kcal/mol]      -0.00077455 [kJ/mol]
  Total sSAPT0                      0.01679854 [mEh]       0.01054124 [kcal/mol]       0.04410457 [kJ/mol]
  --------------------------------------------------------------------------------------------------------

*** Psi4 exiting successfully. Buy a developer a beer!
