                               Psi4 1.4rc3

  ==> Input File <==

--------------------------------------------------------------------------
# PSI4 file produced by CrystaLattE

# Generated from:               pyrazole.xyz
# Psithon input for N-mer:      2mer-0+32
# Number of atoms per monomer:  [9, 9]
# Number of replicas:           2
# COM priority:                 1.783262960946e-04
# Minimum COM separations:      9.401
# Separation priority:          4.369541019069e-04
# Minimum monomer separations:  6.974
# Cutoff priority:              3.315744776979e-05
# Nuclear repulsion energy:     406.1030815212665

memory 7 GB

molecule Dimer_0_32 {
  N            6.27981210      -4.25303372       0.19313865
  N            6.06870777      -2.28125697       1.80544317
  H            3.66871156      -5.64628941      -1.96684001
  H            0.69034521      -2.37545694      -0.42864236
  H            3.35917442       0.17650601       3.09265017
  H            7.35266782      -1.99461311       2.90680702
  C            3.77952586      -1.21508453       1.76858172
  C            2.38242998      -2.55505538       0.04607681
  C            4.01771468      -4.38410490      -0.88761863
--
  N           -9.19704487      -7.53338133       6.59269617
  N           -9.40814920      -9.50515808       8.20500069
  H          -11.80814541      -6.14012564       4.43271751
  H          -14.78651176      -9.41095811       5.97091516
  H          -12.11768255     -11.96292106       9.49220769
  H           -8.12418914      -9.79180194       9.30636454
  C          -11.69733111     -10.57133052       8.16813924
  C          -13.09442699      -9.23135967       6.44563434
  C          -11.45914228      -7.40231015       5.51193890
units = au
no_com
no_reorient
}

set {
  e_convergence 10
  d_convergence 10
  scf_type df
  mp2_type df
  cc_type df
  freeze_core true
}

energy('sapt0/aug-cc-pvdz')

--------------------------------------------------------------------------

  //              Dimer HF             //
    Molecular point group: c1
  Charge       = 0
  Multiplicity = 1
  Basis Set: AUG-CC-PVDZ
    Blend: AUG-CC-PVDZ
  Basis Set: (AUG-CC-PVDZ AUX)
    Blend: AUG-CC-PVDZ-JKFIT
  @DF-RHF Final Energy:  -449.52480383993702
    Total Energy =                       -449.5248038399370216
  //            Monomer A HF           //
    Molecular point group: c1
  Multiplicity = 1
  Basis Set: AUG-CC-PVDZ
    Blend: AUG-CC-PVDZ
  Basis Set: (AUG-CC-PVDZ AUX)
    Blend: AUG-CC-PVDZ-JKFIT
  @DF-RHF Final Energy:  -224.76235277227832
    Total Energy =                       -224.7623527722783194
  //            Monomer B HF           //
    Molecular point group: c1

    Geometry (in Bohr), charge = 0, multiplicity = 1:

       Center              X                  Y                   Z               Mass
    ------------   -----------------  -----------------  -----------------  -----------------
      Gh(N)           6.279812100000    -4.253033720000     0.193138650000    14.003074004430
      Gh(N)           6.068707770000    -2.281256970000     1.805443170000    14.003074004430
      Gh(H)           3.668711560000    -5.646289410000    -1.966840010000     1.007825032230
      Gh(H)           0.690345210000    -2.375456940000    -0.428642360000     1.007825032230
      Gh(H)           3.359174420000     0.176506010000     3.092650170000     1.007825032230
      Gh(H)           7.352667820000    -1.994613110000     2.906807020000     1.007825032230
      Gh(C)           3.779525860000    -1.215084530000     1.768581720000    12.000000000000
      Gh(C)           2.382429980000    -2.555055380000     0.046076810000    12.000000000000
      Gh(C)           4.017714680000    -4.384104900000    -0.887618630000    12.000000000000
         N           -9.197044870000    -7.533381330000     6.592696170000    14.003074004430
         N           -9.408149200000    -9.505158080000     8.205000690000    14.003074004430
         H          -11.808145410000    -6.140125640000     4.432717510000     1.007825032230
         H          -14.786511760000    -9.410958110000     5.970915160000     1.007825032230
         H          -12.117682550000   -11.962921060000     9.492207690000     1.007825032230
         H           -8.124189140000    -9.791801940000     9.306364540000     1.007825032230
         C          -11.697331110000   -10.571330520000     8.168139240000    12.000000000000
         C          -13.094426990000    -9.231359670000     6.445634340000    12.000000000000
         C          -11.459142280000    -7.402310150000     5.511938900000    12.000000000000

  Charge       = 0
  Multiplicity = 1
  Basis Set: AUG-CC-PVDZ
    Blend: AUG-CC-PVDZ
  Basis Set: (AUG-CC-PVDZ AUX)
    Blend: AUG-CC-PVDZ-JKFIT

    Orbital Energies [Eh]
    ---------------------

    Doubly Occupied:

       1A    -15.636221     2A    -15.592316     3A    -11.279892
       4A    -11.237776     5A    -11.209888     6A     -1.386921
       7A     -1.121901     8A     -1.066898     9A     -0.872767
      10A     -0.837062    11A     -0.757292    12A     -0.645746
      13A     -0.620834    14A     -0.609139    15A     -0.583921
      16A     -0.461404    17A     -0.370720    18A     -0.346047

  @DF-RHF Final Energy:  -224.76235487810192

   => Energetics <=

    Nuclear Repulsion Energy =            166.6240565500629032
    One-Electron Energy =                -633.4993296939323955
    Two-Electron Energy =                 242.1129182657675756
    Total Energy =                       -224.7623548781019167

  Dipole Moment: [D]
     X:    -1.0233      Y:    -1.6055      Z:     1.4732     Total:     2.4073

    SAPT Results
  --------------------------------------------------------------------------------------------------------
    Electrostatics                 -0.09118804 [mEh]      -0.05722136 [kcal/mol]      -0.23941416 [kJ/mol]
      Elst10,r                     -0.09118804 [mEh]      -0.05722136 [kcal/mol]      -0.23941416 [kJ/mol]

    Exchange                        0.00000598 [mEh]       0.00000376 [kcal/mol]       0.00001571 [kJ/mol]
      Exch10                        0.00000598 [mEh]       0.00000376 [kcal/mol]       0.00001571 [kJ/mol]
      Exch10(S^2)                   0.00000598 [mEh]       0.00000376 [kcal/mol]       0.00001571 [kJ/mol]

    Induction                      -0.00500750 [mEh]      -0.00314226 [kcal/mol]      -0.01314720 [kJ/mol]
      Ind20,r                      -0.00541562 [mEh]      -0.00339835 [kcal/mol]      -0.01421871 [kJ/mol]
      Exch-Ind20,r                  0.00001886 [mEh]       0.00001183 [kcal/mol]       0.00004951 [kJ/mol]
      delta HF,r (2)                0.00038926 [mEh]       0.00024426 [kcal/mol]       0.00102200 [kJ/mol]

    Dispersion                     -0.04479083 [mEh]      -0.02810667 [kcal/mol]      -0.11759831 [kJ/mol]
      Disp20                       -0.04479612 [mEh]      -0.02810999 [kcal/mol]      -0.11761219 [kJ/mol]
      Exch-Disp20                   0.00000529 [mEh]       0.00000332 [kcal/mol]       0.00001388 [kJ/mol]
      Disp20 (SS)                  -0.02239806 [mEh]      -0.01405499 [kcal/mol]      -0.05880609 [kJ/mol]
      Disp20 (OS)                  -0.02239806 [mEh]      -0.01405499 [kcal/mol]      -0.05880609 [kJ/mol]
      Exch-Disp20 (SS)              0.00000437 [mEh]       0.00000274 [kcal/mol]       0.00001148 [kJ/mol]
      Exch-Disp20 (OS)              0.00000092 [mEh]       0.00000057 [kcal/mol]       0.00000240 [kJ/mol]

  Total HF                         -0.09618956 [mEh]      -0.06035986 [kcal/mol]      -0.25254565 [kJ/mol]
  Total SAPT0                      -0.14098039 [mEh]      -0.08846653 [kcal/mol]      -0.37014396 [kJ/mol]

  Special recipe for scaled SAPT0 (see Manual):
    Electrostatics sSAPT0          -0.09118804 [mEh]      -0.05722136 [kcal/mol]      -0.23941416 [kJ/mol]
    Exchange sSAPT0                 0.00000598 [mEh]       0.00000376 [kcal/mol]       0.00001571 [kJ/mol]
    Induction sSAPT0               -0.00500750 [mEh]      -0.00314226 [kcal/mol]      -0.01314720 [kJ/mol]
    Dispersion sSAPT0              -0.04479083 [mEh]      -0.02810667 [kcal/mol]      -0.11759831 [kJ/mol]
  Total sSAPT0                     -0.14098039 [mEh]      -0.08846653 [kcal/mol]      -0.37014396 [kJ/mol]
  --------------------------------------------------------------------------------------------------------

*** Psi4 exiting successfully. Buy a developer a beer!
