                               Psi4 1.4rc3

  ==> Input File <==

--------------------------------------------------------------------------
# PSI4 file produced by CrystaLattE

# Generated from:               pyrazole.xyz
# Psithon input for N-mer:      2mer-0+6
# Number of atoms per monomer:  [9, 9]
# Number of replicas:           1
# COM priority:                 6.209416562146e-04
# Minimum COM separations:      6.203
# Separation priority:          2.227933311588e-03
# Minimum monomer separations:  4.052
# Cutoff priority:              2.909843169843e-04
# Nuclear repulsion energy:     443.60607277969103

memory 7 GB

molecule Dimer_0_6 {
  N            6.27981210      -4.25303372       0.19313865
  N            6.06870777      -2.28125697       1.80544317
  H            3.66871156      -5.64628941      -1.96684001
  H            0.69034521      -2.37545694      -0.42864236
  H            3.35917442       0.17650601       3.09265017
  H            7.35266782      -1.99461311       2.90680702
  C            3.77952586      -1.21508453       1.76858172
  C            2.38242998      -2.55505538       0.04607681
  C            4.01771468      -4.38410490      -0.88761863
--
  N            2.79813836       9.60054745       1.58785821
  N            2.91700062       7.56264041       0.05068450
  H            5.47130109      12.00145742       2.30588857
  H            8.36593765       9.55891867      -0.44924894
  H            5.42951358       5.84586966      -2.35388525
  H            1.45459240       6.75266336      -0.33508083
  C            5.19983702       7.23246474      -0.97836435
  C            6.68282945       9.16213696      -0.08844188
  C            5.12152412      10.54730477       1.50325606
units = au
no_com
no_reorient
}

set {
  e_convergence 10
  d_convergence 10
  scf_type df
  mp2_type df
  cc_type df
  freeze_core true
}

energy('sapt0/aug-cc-pvdz')

--------------------------------------------------------------------------

  //              Dimer HF             //
    Molecular point group: c1
  Charge       = 0
  Multiplicity = 1
  Basis Set: AUG-CC-PVDZ
    Blend: AUG-CC-PVDZ
  Basis Set: (AUG-CC-PVDZ AUX)
    Blend: AUG-CC-PVDZ-JKFIT
  @DF-RHF Final Energy:  -449.52584041538512
    Total Energy =                       -449.5258404153851188
  //            Monomer A HF           //
    Molecular point group: c1
  Multiplicity = 1
  Basis Set: AUG-CC-PVDZ
    Blend: AUG-CC-PVDZ
  Basis Set: (AUG-CC-PVDZ AUX)
    Blend: AUG-CC-PVDZ-JKFIT
  @DF-RHF Final Energy:  -224.76247195490998
    Total Energy =                       -224.7624719549099837
  //            Monomer B HF           //
    Molecular point group: c1

    Geometry (in Bohr), charge = 0, multiplicity = 1:

       Center              X                  Y                   Z               Mass
    ------------   -----------------  -----------------  -----------------  -----------------
      Gh(N)           6.279812100000    -4.253033720000     0.193138650000    14.003074004430
      Gh(N)           6.068707770000    -2.281256970000     1.805443170000    14.003074004430
      Gh(H)           3.668711560000    -5.646289410000    -1.966840010000     1.007825032230
      Gh(H)           0.690345210000    -2.375456940000    -0.428642360000     1.007825032230
      Gh(H)           3.359174420000     0.176506010000     3.092650170000     1.007825032230
      Gh(H)           7.352667820000    -1.994613110000     2.906807020000     1.007825032230
      Gh(C)           3.779525860000    -1.215084530000     1.768581720000    12.000000000000
      Gh(C)           2.382429980000    -2.555055380000     0.046076810000    12.000000000000
      Gh(C)           4.017714680000    -4.384104900000    -0.887618630000    12.000000000000
         N            2.798138360000     9.600547450000     1.587858210000    14.003074004430
         N            2.917000620000     7.562640410000     0.050684500000    14.003074004430
         H            5.471301090000    12.001457420000     2.305888570000     1.007825032230
         H            8.365937650000     9.558918670000    -0.449248940000     1.007825032230
         H            5.429513580000     5.845869660000    -2.353885250000     1.007825032230
         H            1.454592400000     6.752663360000    -0.335080830000     1.007825032230
         C            5.199837020000     7.232464740000    -0.978364350000    12.000000000000
         C            6.682829450000     9.162136960000    -0.088441880000    12.000000000000
         C            5.121524120000    10.547304770000     1.503256060000    12.000000000000

  Charge       = 0
  Multiplicity = 1
  Basis Set: AUG-CC-PVDZ
    Blend: AUG-CC-PVDZ
  Basis Set: (AUG-CC-PVDZ AUX)
    Blend: AUG-CC-PVDZ-JKFIT

    Orbital Energies [Eh]
    ---------------------

    Doubly Occupied:

       1A    -15.636273     2A    -15.592305     3A    -11.279901
       4A    -11.237756     5A    -11.209865     6A     -1.386995
       7A     -1.121893     8A     -1.066920     9A     -0.872759
      10A     -0.837037    11A     -0.757268    12A     -0.645744
      13A     -0.620830    14A     -0.609177    15A     -0.583899
      16A     -0.461419    17A     -0.370718    18A     -0.346058

  @DF-RHF Final Energy:  -224.76255728562717

   => Energetics <=

    Nuclear Repulsion Energy =            166.6286029541084019
    One-Electron Energy =                -633.5086902194259437
    Two-Electron Energy =                 242.1175299796904028
    Total Energy =                       -224.7625572856271674

  Dipole Moment: [D]
     X:     0.7395      Y:    -1.4323      Z:    -1.7848     Total:     2.4049

    SAPT Results
  --------------------------------------------------------------------------------------------------------
    Electrostatics                 -0.83055427 [mEh]      -0.52118068 [kcal/mol]      -2.18061995 [kJ/mol]
      Elst10,r                     -0.83055427 [mEh]      -0.52118068 [kcal/mol]      -2.18061995 [kJ/mol]

    Exchange                        0.07790845 [mEh]       0.04888829 [kcal/mol]       0.20454860 [kJ/mol]
      Exch10                        0.07790845 [mEh]       0.04888829 [kcal/mol]       0.20454860 [kJ/mol]
      Exch10(S^2)                   0.07790047 [mEh]       0.04888328 [kcal/mol]       0.20452766 [kJ/mol]

    Induction                      -0.05852902 [mEh]      -0.03672752 [kcal/mol]      -0.15366792 [kJ/mol]
      Ind20,r                      -0.07933108 [mEh]      -0.04978101 [kcal/mol]      -0.20828373 [kJ/mol]
      Exch-Ind20,r                  0.02706345 [mEh]       0.01698257 [kcal/mol]       0.07105508 [kJ/mol]
      delta HF,r (2)               -0.00626139 [mEh]      -0.00392908 [kcal/mol]      -0.01643928 [kJ/mol]

    Dispersion                     -0.74901554 [mEh]      -0.47001435 [kcal/mol]      -1.96654002 [kJ/mol]
      Disp20                       -0.76354474 [mEh]      -0.47913156 [kcal/mol]      -2.00468644 [kJ/mol]
      Exch-Disp20                   0.01452920 [mEh]       0.00911721 [kcal/mol]       0.03814641 [kJ/mol]
      Disp20 (SS)                  -0.38177237 [mEh]      -0.23956578 [kcal/mol]      -1.00234322 [kJ/mol]
      Disp20 (OS)                  -0.38177237 [mEh]      -0.23956578 [kcal/mol]      -1.00234322 [kJ/mol]
      Exch-Disp20 (SS)              0.00995387 [mEh]       0.00624615 [kcal/mol]       0.02613388 [kJ/mol]
      Exch-Disp20 (OS)              0.00457533 [mEh]       0.00287107 [kcal/mol]       0.01201254 [kJ/mol]

  Total HF                         -0.81117485 [mEh]      -0.50901990 [kcal/mol]      -2.12973927 [kJ/mol]
  Total SAPT0                      -1.56019039 [mEh]      -0.97903425 [kcal/mol]      -4.09627929 [kJ/mol]

  Special recipe for scaled SAPT0 (see Manual):
    Electrostatics sSAPT0          -0.83055427 [mEh]      -0.52118068 [kcal/mol]      -2.18061995 [kJ/mol]
    Exchange sSAPT0                 0.07790845 [mEh]       0.04888829 [kcal/mol]       0.20454860 [kJ/mol]
    Induction sSAPT0               -0.05852071 [mEh]      -0.03672230 [kcal/mol]      -0.15364609 [kJ/mol]
    Dispersion sSAPT0              -0.74901107 [mEh]      -0.47001154 [kcal/mol]      -1.96652830 [kJ/mol]
  Total sSAPT0                     -1.56017761 [mEh]      -0.97902623 [kcal/mol]      -4.09624574 [kJ/mol]
  --------------------------------------------------------------------------------------------------------

*** Psi4 exiting successfully. Buy a developer a beer!
