                               Psi4 1.4rc3

  ==> Input File <==

--------------------------------------------------------------------------
# PSI4 file produced by CrystaLattE

# Generated from:               pyrazole.xyz
# Psithon input for N-mer:      2mer-0+20
# Number of atoms per monomer:  [9, 9]
# Number of replicas:           1
# COM priority:                 1.353510699207e-04
# Minimum COM separations:      10.307
# Separation priority:          3.923294843632e-04
# Minimum monomer separations:  7.229
# Cutoff priority:              2.872111284339e-05
# Nuclear repulsion energy:     400.308305580568

memory 7 GB

molecule Dimer_0_20 {
  N            6.27981210      -4.25303372       0.19313865
  N            6.06870777      -2.28125697       1.80544317
  H            3.66871156      -5.64628941      -1.96684001
  H            0.69034521      -2.37545694      -0.42864236
  H            3.35917442       0.17650601       3.09265017
  H            7.35266782      -1.99461311       2.90680702
  C            3.77952586      -1.21508453       1.76858172
  C            2.38242998      -2.55505538       0.04607681
  C            4.01771468      -4.38410490      -0.88761863
--
  N          -12.67871861       9.60054745       1.58785821
  N          -12.55985635       7.56264041       0.05068450
  H          -10.00555588      12.00145742       2.30588857
  H           -7.11091932       9.55891867      -0.44924894
  H          -10.04734339       5.84586966      -2.35388525
  H          -14.02226457       6.75266336      -0.33508083
  C          -10.27701995       7.23246474      -0.97836435
  C           -8.79402751       9.16213696      -0.08844188
  C          -10.35533284      10.54730477       1.50325606
units = au
no_com
no_reorient
}

set {
  e_convergence 10
  d_convergence 10
  scf_type df
  mp2_type df
  cc_type df
  freeze_core true
}

energy('sapt0/aug-cc-pvdz')

--------------------------------------------------------------------------

  //              Dimer HF             //
    Molecular point group: c1
  Charge       = 0
  Multiplicity = 1
  Basis Set: AUG-CC-PVDZ
    Blend: AUG-CC-PVDZ
  Basis Set: (AUG-CC-PVDZ AUX)
    Blend: AUG-CC-PVDZ-JKFIT
  @DF-RHF Final Energy:  -449.52481326926790
    Total Energy =                       -449.5248132692679519
  //            Monomer A HF           //
    Molecular point group: c1
  Multiplicity = 1
  Basis Set: AUG-CC-PVDZ
    Blend: AUG-CC-PVDZ
  Basis Set: (AUG-CC-PVDZ AUX)
    Blend: AUG-CC-PVDZ-JKFIT
  @DF-RHF Final Energy:  -224.76235136897367
    Total Energy =                       -224.7623513689736683
  //            Monomer B HF           //
    Molecular point group: c1

    Geometry (in Bohr), charge = 0, multiplicity = 1:

       Center              X                  Y                   Z               Mass
    ------------   -----------------  -----------------  -----------------  -----------------
      Gh(N)           6.279812100000    -4.253033720000     0.193138650000    14.003074004430
      Gh(N)           6.068707770000    -2.281256970000     1.805443170000    14.003074004430
      Gh(H)           3.668711560000    -5.646289410000    -1.966840010000     1.007825032230
      Gh(H)           0.690345210000    -2.375456940000    -0.428642360000     1.007825032230
      Gh(H)           3.359174420000     0.176506010000     3.092650170000     1.007825032230
      Gh(H)           7.352667820000    -1.994613110000     2.906807020000     1.007825032230
      Gh(C)           3.779525860000    -1.215084530000     1.768581720000    12.000000000000
      Gh(C)           2.382429980000    -2.555055380000     0.046076810000    12.000000000000
      Gh(C)           4.017714680000    -4.384104900000    -0.887618630000    12.000000000000
         N          -12.678718610000     9.600547450000     1.587858210000    14.003074004430
         N          -12.559856350000     7.562640410000     0.050684500000    14.003074004430
         H          -10.005555880000    12.001457420000     2.305888570000     1.007825032230
         H           -7.110919320000     9.558918670000    -0.449248940000     1.007825032230
         H          -10.047343390000     5.845869660000    -2.353885250000     1.007825032230
         H          -14.022264570000     6.752663360000    -0.335080830000     1.007825032230
         C          -10.277019950000     7.232464740000    -0.978364350000    12.000000000000
         C           -8.794027510000     9.162136960000    -0.088441880000    12.000000000000
         C          -10.355332840000    10.547304770000     1.503256060000    12.000000000000

  Charge       = 0
  Multiplicity = 1
  Basis Set: AUG-CC-PVDZ
    Blend: AUG-CC-PVDZ
  Basis Set: (AUG-CC-PVDZ AUX)
    Blend: AUG-CC-PVDZ-JKFIT

    Orbital Energies [Eh]
    ---------------------

    Doubly Occupied:

       1A    -15.636236     2A    -15.592295     3A    -11.279905
       4A    -11.237760     5A    -11.209887     6A     -1.387003
       7A     -1.121896     8A     -1.066931     9A     -0.872761
      10A     -0.837042    11A     -0.757275    12A     -0.645748
      13A     -0.620831    14A     -0.609179    15A     -0.583909
      16A     -0.461416    17A     -0.370717    18A     -0.346057

  @DF-RHF Final Energy:  -224.76244592975021

   => Energetics <=

    Nuclear Repulsion Energy =            166.6286028240608346
    One-Electron Energy =                -633.5084043714298332
    Two-Electron Energy =                 242.1173556176187560
    Total Energy =                       -224.7624459297502142

  Dipole Moment: [D]
     X:     0.7399      Y:    -1.4335      Z:    -1.7872     Total:     2.4076

    SAPT Results
  --------------------------------------------------------------------------------------------------------
    Electrostatics                 -0.01519805 [mEh]      -0.00953692 [kcal/mol]      -0.03990247 [kJ/mol]
      Elst10,r                     -0.01519805 [mEh]      -0.00953692 [kcal/mol]      -0.03990247 [kJ/mol]

    Exchange                        0.00000142 [mEh]       0.00000089 [kcal/mol]       0.00000372 [kJ/mol]
      Exch10                        0.00000142 [mEh]       0.00000089 [kcal/mol]       0.00000372 [kJ/mol]
      Exch10(S^2)                   0.00000142 [mEh]       0.00000089 [kcal/mol]       0.00000372 [kJ/mol]

    Induction                      -0.00077391 [mEh]      -0.00048564 [kcal/mol]      -0.00203190 [kJ/mol]
      Ind20,r                      -0.00121801 [mEh]      -0.00076431 [kcal/mol]      -0.00319788 [kJ/mol]
      Exch-Ind20,r                  0.00001069 [mEh]       0.00000671 [kcal/mol]       0.00002808 [kJ/mol]
      delta HF,r (2)                0.00043341 [mEh]       0.00027197 [kcal/mol]       0.00113791 [kJ/mol]

    Dispersion                     -0.03001695 [mEh]      -0.01883592 [kcal/mol]      -0.07880949 [kJ/mol]
      Disp20                       -0.03001855 [mEh]      -0.01883692 [kcal/mol]      -0.07881369 [kJ/mol]
      Exch-Disp20                   0.00000160 [mEh]       0.00000100 [kcal/mol]       0.00000420 [kJ/mol]
      Disp20 (SS)                  -0.01500928 [mEh]      -0.00941846 [kcal/mol]      -0.03940685 [kJ/mol]
      Disp20 (OS)                  -0.01500928 [mEh]      -0.00941846 [kcal/mol]      -0.03940685 [kJ/mol]
      Exch-Disp20 (SS)              0.00000133 [mEh]       0.00000083 [kcal/mol]       0.00000348 [kJ/mol]
      Exch-Disp20 (OS)              0.00000027 [mEh]       0.00000017 [kcal/mol]       0.00000072 [kJ/mol]

  Total HF                         -0.01597054 [mEh]      -0.01002167 [kcal/mol]      -0.04193066 [kJ/mol]
  Total SAPT0                      -0.04598749 [mEh]      -0.02885759 [kcal/mol]      -0.12074015 [kJ/mol]

  Special recipe for scaled SAPT0 (see Manual):
    Electrostatics sSAPT0          -0.01519805 [mEh]      -0.00953692 [kcal/mol]      -0.03990247 [kJ/mol]
    Exchange sSAPT0                 0.00000142 [mEh]       0.00000089 [kcal/mol]       0.00000372 [kJ/mol]
    Induction sSAPT0               -0.00077391 [mEh]      -0.00048564 [kcal/mol]      -0.00203190 [kJ/mol]
    Dispersion sSAPT0              -0.03001695 [mEh]      -0.01883592 [kcal/mol]      -0.07880949 [kJ/mol]
  Total sSAPT0                     -0.04598749 [mEh]      -0.02885759 [kcal/mol]      -0.12074015 [kJ/mol]
  --------------------------------------------------------------------------------------------------------

*** Psi4 exiting successfully. Buy a developer a beer!
