                               Psi4 1.4rc3

  ==> Input File <==

--------------------------------------------------------------------------
# PSI4 file produced by CrystaLattE

# Generated from:               pyrazole.xyz
# Psithon input for N-mer:      2mer-0+33
# Number of atoms per monomer:  [9, 9]
# Number of replicas:           2
# COM priority:                 2.395501746827e-04
# Minimum COM separations:      8.521
# Separation priority:          6.197606392309e-04
# Minimum monomer separations:  6.207
# Cutoff priority:              5.284030566326e-05
# Nuclear repulsion energy:     413.2935537008891

memory 7 GB

molecule Dimer_0_33 {
  N            6.27981210      -4.25303372       0.19313865
  N            6.06870777      -2.28125697       1.80544317
  H            3.66871156      -5.64628941      -1.96684001
  H            0.69034521      -2.37545694      -0.42864236
  H            3.35917442       0.17650601       3.09265017
  H            7.35266782      -1.99461311       2.90680702
  C            3.77952586      -1.21508453       1.76858172
  C            2.38242998      -2.55505538       0.04607681
  C            4.01771468      -4.38410490      -0.88761863
--
  N           14.01824058       7.64090252      -6.54661936
  N           13.80713625       9.61267926      -8.15892388
  H           11.40714004       6.24764682      -4.38664070
  H            8.42877369       9.51847929      -5.92483835
  H           11.09760290      12.07044225      -9.44613088
  H           15.09109631       9.89932313      -9.26028773
  C           11.51795434      10.67885171      -8.12206243
  C           10.12085846       9.33888085      -6.39955752
  C           11.75614317       7.50983134      -5.46586208
units = au
no_com
no_reorient
}

set {
  e_convergence 10
  d_convergence 10
  scf_type df
  mp2_type df
  cc_type df
  freeze_core true
}

energy('sapt0/aug-cc-pvdz')

--------------------------------------------------------------------------

  //              Dimer HF             //
    Molecular point group: c1
  Charge       = 0
  Multiplicity = 1
  Basis Set: AUG-CC-PVDZ
    Blend: AUG-CC-PVDZ
  Basis Set: (AUG-CC-PVDZ AUX)
    Blend: AUG-CC-PVDZ-JKFIT
  @DF-RHF Final Energy:  -449.52465609111982
    Total Energy =                       -449.5246560911198230
  //            Monomer A HF           //
    Molecular point group: c1
  Multiplicity = 1
  Basis Set: AUG-CC-PVDZ
    Blend: AUG-CC-PVDZ
  Basis Set: (AUG-CC-PVDZ AUX)
    Blend: AUG-CC-PVDZ-JKFIT
  @DF-RHF Final Energy:  -224.76236699080908
    Total Energy =                       -224.7623669908090847
  //            Monomer B HF           //
    Molecular point group: c1

    Geometry (in Bohr), charge = 0, multiplicity = 1:

       Center              X                  Y                   Z               Mass
    ------------   -----------------  -----------------  -----------------  -----------------
      Gh(N)           6.279812100000    -4.253033720000     0.193138650000    14.003074004430
      Gh(N)           6.068707770000    -2.281256970000     1.805443170000    14.003074004430
      Gh(H)           3.668711560000    -5.646289410000    -1.966840010000     1.007825032230
      Gh(H)           0.690345210000    -2.375456940000    -0.428642360000     1.007825032230
      Gh(H)           3.359174420000     0.176506010000     3.092650170000     1.007825032230
      Gh(H)           7.352667820000    -1.994613110000     2.906807020000     1.007825032230
      Gh(C)           3.779525860000    -1.215084530000     1.768581720000    12.000000000000
      Gh(C)           2.382429980000    -2.555055380000     0.046076810000    12.000000000000
      Gh(C)           4.017714680000    -4.384104900000    -0.887618630000    12.000000000000
         N           14.018240580000     7.640902520000    -6.546619360000    14.003074004430
         N           13.807136250000     9.612679260000    -8.158923880000    14.003074004430
         H           11.407140040000     6.247646820000    -4.386640700000     1.007825032230
         H            8.428773690000     9.518479290000    -5.924838350000     1.007825032230
         H           11.097602900000    12.070442250000    -9.446130880000     1.007825032230
         H           15.091096310000     9.899323130000    -9.260287730000     1.007825032230
         C           11.517954340000    10.678851710000    -8.122062430000    12.000000000000
         C           10.120858460000     9.338880850000    -6.399557520000    12.000000000000
         C           11.756143170000     7.509831340000    -5.465862080000    12.000000000000

  Charge       = 0
  Multiplicity = 1
  Basis Set: AUG-CC-PVDZ
    Blend: AUG-CC-PVDZ
  Basis Set: (AUG-CC-PVDZ AUX)
    Blend: AUG-CC-PVDZ-JKFIT

    Orbital Energies [Eh]
    ---------------------

    Doubly Occupied:

       1A    -15.636223     2A    -15.592311     3A    -11.279893
       4A    -11.237772     5A    -11.209888     6A     -1.386922
       7A     -1.121902     8A     -1.066900     9A     -0.872768
      10A     -0.837062    11A     -0.757295    12A     -0.645749
      13A     -0.620836    14A     -0.609140    15A     -0.583921
      16A     -0.461404    17A     -0.370721    18A     -0.346049

  @DF-RHF Final Energy:  -224.76236264600328

   => Energetics <=

    Nuclear Repulsion Energy =            166.6240564920159954
    One-Electron Energy =                -633.4993230021468662
    Two-Electron Energy =                 242.1129038641275883
    Total Energy =                       -224.7623626460032824

  Dipole Moment: [D]
     X:    -1.0238      Y:     1.6057      Z:    -1.4734     Total:     2.4078

    SAPT Results
  --------------------------------------------------------------------------------------------------------
    Electrostatics                  0.07605906 [mEh]       0.04772778 [kcal/mol]       0.19969303 [kJ/mol]
      Elst10,r                      0.07605906 [mEh]       0.04772778 [kcal/mol]       0.19969303 [kJ/mol]

    Exchange                        0.00002204 [mEh]       0.00001383 [kcal/mol]       0.00005787 [kJ/mol]
      Exch10                        0.00002204 [mEh]       0.00001383 [kcal/mol]       0.00005787 [kJ/mol]
      Exch10(S^2)                   0.00002204 [mEh]       0.00001383 [kcal/mol]       0.00005787 [kJ/mol]

    Induction                      -0.00253541 [mEh]      -0.00159099 [kcal/mol]      -0.00665672 [kJ/mol]
      Ind20,r                      -0.00294550 [mEh]      -0.00184833 [kcal/mol]      -0.00773341 [kJ/mol]
      Exch-Ind20,r                  0.00004284 [mEh]       0.00002688 [kcal/mol]       0.00011247 [kJ/mol]
      delta HF,r (2)                0.00036725 [mEh]       0.00023046 [kcal/mol]       0.00096423 [kJ/mol]

    Dispersion                     -0.07520542 [mEh]      -0.04719212 [kcal/mol]      -0.19745181 [kJ/mol]
      Disp20                       -0.07521172 [mEh]      -0.04719607 [kcal/mol]      -0.19746834 [kJ/mol]
      Exch-Disp20                   0.00000630 [mEh]       0.00000395 [kcal/mol]       0.00001653 [kJ/mol]
      Disp20 (SS)                  -0.03760586 [mEh]      -0.02359803 [kcal/mol]      -0.09873417 [kJ/mol]
      Disp20 (OS)                  -0.03760586 [mEh]      -0.02359803 [kcal/mol]      -0.09873417 [kJ/mol]
      Exch-Disp20 (SS)              0.00000511 [mEh]       0.00000321 [kcal/mol]       0.00001341 [kJ/mol]
      Exch-Disp20 (OS)              0.00000119 [mEh]       0.00000075 [kcal/mol]       0.00000312 [kJ/mol]

  Total HF                          0.07354569 [mEh]       0.04615062 [kcal/mol]       0.19309419 [kJ/mol]
  Total SAPT0                      -0.00165973 [mEh]      -0.00104150 [kcal/mol]      -0.00435762 [kJ/mol]

  Special recipe for scaled SAPT0 (see Manual):
    Electrostatics sSAPT0           0.07605906 [mEh]       0.04772778 [kcal/mol]       0.19969303 [kJ/mol]
    Exchange sSAPT0                 0.00002204 [mEh]       0.00001383 [kcal/mol]       0.00005787 [kJ/mol]
    Induction sSAPT0               -0.00253541 [mEh]      -0.00159099 [kcal/mol]      -0.00665672 [kJ/mol]
    Dispersion sSAPT0              -0.07520542 [mEh]      -0.04719212 [kcal/mol]      -0.19745181 [kJ/mol]
  Total sSAPT0                     -0.00165973 [mEh]      -0.00104150 [kcal/mol]      -0.00435762 [kJ/mol]
  --------------------------------------------------------------------------------------------------------

*** Psi4 exiting successfully. Buy a developer a beer!
