                               Psi4 1.4rc3

  ==> Input File <==

--------------------------------------------------------------------------
# PSI4 file produced by CrystaLattE

# Generated from:               pyrazole.xyz
# Psithon input for N-mer:      2mer-0+263
# Number of atoms per monomer:  [9, 9]
# Number of replicas:           1
# COM priority:                 1.626634046904e-05
# Minimum COM separations:      20.885
# Separation priority:          3.200559222493e-05
# Minimum monomer separations:  16.667
# Cutoff priority:              1.016173402920e-06
# Nuclear repulsion energy:     366.21733608516035

memory 7 GB

molecule Dimer_0_263 {
  N            6.27981210      -4.25303372       0.19313865
  N            6.06870777      -2.28125697       1.80544317
  H            3.66871156      -5.64628941      -1.96684001
  H            0.69034521      -2.37545694      -0.42864236
  H            3.35917442       0.17650601       3.09265017
  H            7.35266782      -1.99461311       2.90680702
  C            3.77952586      -1.21508453       1.76858172
  C            2.38242998      -2.55505538       0.04607681
  C            4.01771468      -4.38410490      -0.88761863
--
  N          -35.89400406      -2.29338878      -7.94133892
  N          -35.77514180      -4.33129582      -6.40416521
  H          -33.22084133       0.10752118      -8.65936928
  H          -30.32620477      -2.33501756      -5.90423177
  H          -33.26262884      -6.04806657      -3.99959546
  H          -37.23755002      -5.14127288      -6.01839988
  C          -33.49230540      -4.66147149      -5.37511636
  C          -32.00931296      -2.73179927      -6.26503882
  C          -33.57061830      -1.34663146      -7.85673677
units = au
no_com
no_reorient
}

set {
  e_convergence 10
  d_convergence 10
  scf_type df
  mp2_type df
  cc_type df
  freeze_core true
}

energy('sapt0/aug-cc-pvdz')

--------------------------------------------------------------------------

  //              Dimer HF             //
    Molecular point group: c1
  Charge       = 0
  Multiplicity = 1
  Basis Set: AUG-CC-PVDZ
    Blend: AUG-CC-PVDZ
  Basis Set: (AUG-CC-PVDZ AUX)
    Blend: AUG-CC-PVDZ-JKFIT
  @DF-RHF Final Energy:  -449.52476982085216
    Total Energy =                       -449.5247698208521570
  //            Monomer A HF           //
    Molecular point group: c1
  Multiplicity = 1
  Basis Set: AUG-CC-PVDZ
    Blend: AUG-CC-PVDZ
  Basis Set: (AUG-CC-PVDZ AUX)
    Blend: AUG-CC-PVDZ-JKFIT
  @DF-RHF Final Energy:  -224.76233952013720
    Total Energy =                       -224.7623395201372034
  //            Monomer B HF           //
    Molecular point group: c1

    Geometry (in Bohr), charge = 0, multiplicity = 1:

       Center              X                  Y                   Z               Mass
    ------------   -----------------  -----------------  -----------------  -----------------
      Gh(N)           6.279812100000    -4.253033720000     0.193138650000    14.003074004430
      Gh(N)           6.068707770000    -2.281256970000     1.805443170000    14.003074004430
      Gh(H)           3.668711560000    -5.646289410000    -1.966840010000     1.007825032230
      Gh(H)           0.690345210000    -2.375456940000    -0.428642360000     1.007825032230
      Gh(H)           3.359174420000     0.176506010000     3.092650170000     1.007825032230
      Gh(H)           7.352667820000    -1.994613110000     2.906807020000     1.007825032230
      Gh(C)           3.779525860000    -1.215084530000     1.768581720000    12.000000000000
      Gh(C)           2.382429980000    -2.555055380000     0.046076810000    12.000000000000
      Gh(C)           4.017714680000    -4.384104900000    -0.887618630000    12.000000000000
         N          -35.894004060000    -2.293388780000    -7.941338920000    14.003074004430
         N          -35.775141800000    -4.331295820000    -6.404165210000    14.003074004430
         H          -33.220841330000     0.107521180000    -8.659369280000     1.007825032230
         H          -30.326204770000    -2.335017560000    -5.904231770000     1.007825032230
         H          -33.262628840000    -6.048066570000    -3.999595460000     1.007825032230
         H          -37.237550020000    -5.141272880000    -6.018399880000     1.007825032230
         C          -33.492305400000    -4.661471490000    -5.375116360000    12.000000000000
         C          -32.009312960000    -2.731799270000    -6.265038820000    12.000000000000
         C          -33.570618300000    -1.346631460000    -7.856736770000    12.000000000000

  Charge       = 0
  Multiplicity = 1
  Basis Set: AUG-CC-PVDZ
    Blend: AUG-CC-PVDZ
  Basis Set: (AUG-CC-PVDZ AUX)
    Blend: AUG-CC-PVDZ-JKFIT

    Orbital Energies [Eh]
    ---------------------

    Doubly Occupied:

       1A    -15.636233     2A    -15.592291     3A    -11.279903
       4A    -11.237759     5A    -11.209884     6A     -1.387001
       7A     -1.121894     8A     -1.066928     9A     -0.872759
      10A     -0.837039    11A     -0.757272    12A     -0.645745
      13A     -0.620828    14A     -0.609177    15A     -0.583905
      16A     -0.461413    17A     -0.370715    18A     -0.346055

  @DF-RHF Final Energy:  -224.76243506192372

   => Energetics <=

    Nuclear Repulsion Energy =            166.6286028526810696
    One-Electron Energy =                -633.5084734922086227
    Two-Electron Energy =                 242.1174355776038283
    Total Energy =                       -224.7624350619237248

  Dipole Moment: [D]
     X:     0.7394      Y:    -1.4336      Z:     1.7871     Total:     2.4074

    SAPT Results
  --------------------------------------------------------------------------------------------------------
    Electrostatics                  0.00469014 [mEh]       0.00294311 [kcal/mol]       0.01231397 [kJ/mol]
      Elst10,r                      0.00469014 [mEh]       0.00294311 [kcal/mol]       0.01231397 [kJ/mol]

    Exchange                        0.00000000 [mEh]       0.00000000 [kcal/mol]       0.00000000 [kJ/mol]
      Exch10                        0.00000000 [mEh]       0.00000000 [kcal/mol]       0.00000000 [kJ/mol]
      Exch10(S^2)                   0.00000000 [mEh]       0.00000000 [kcal/mol]       0.00000000 [kJ/mol]

    Induction                       0.00007107 [mEh]       0.00004459 [kcal/mol]       0.00018658 [kJ/mol]
      Ind20,r                      -0.00001129 [mEh]      -0.00000709 [kcal/mol]      -0.00002965 [kJ/mol]
      Exch-Ind20,r                  0.00000000 [mEh]       0.00000000 [kcal/mol]       0.00000000 [kJ/mol]
      delta HF,r (2)                0.00008236 [mEh]       0.00005168 [kcal/mol]       0.00021623 [kJ/mol]

    Dispersion                     -0.00035996 [mEh]      -0.00022588 [kcal/mol]      -0.00094506 [kJ/mol]
      Disp20                       -0.00035996 [mEh]      -0.00022588 [kcal/mol]      -0.00094506 [kJ/mol]
      Exch-Disp20                   0.00000000 [mEh]       0.00000000 [kcal/mol]       0.00000000 [kJ/mol]
      Disp20 (SS)                  -0.00017998 [mEh]      -0.00011294 [kcal/mol]      -0.00047253 [kJ/mol]
      Disp20 (OS)                  -0.00017998 [mEh]      -0.00011294 [kcal/mol]      -0.00047253 [kJ/mol]
      Exch-Disp20 (SS)              0.00000000 [mEh]       0.00000000 [kcal/mol]       0.00000000 [kJ/mol]
      Exch-Disp20 (OS)              0.00000000 [mEh]       0.00000000 [kcal/mol]       0.00000000 [kJ/mol]

  Total HF                          0.00476121 [mEh]       0.00298770 [kcal/mol]       0.01250055 [kJ/mol]
  Total SAPT0                       0.00440125 [mEh]       0.00276183 [kcal/mol]       0.01155549 [kJ/mol]

  Special recipe for scaled SAPT0 (see Manual):
    Electrostatics sSAPT0           0.00469014 [mEh]       0.00294311 [kcal/mol]       0.01231397 [kJ/mol]
    Exchange sSAPT0                 0.00000000 [mEh]       0.00000000 [kcal/mol]       0.00000000 [kJ/mol]
    Induction sSAPT0                0.00007107 [mEh]       0.00004459 [kcal/mol]       0.00018658 [kJ/mol]
    Dispersion sSAPT0              -0.00035996 [mEh]      -0.00022588 [kcal/mol]      -0.00094506 [kJ/mol]
  Total sSAPT0                      0.00440125 [mEh]       0.00276183 [kcal/mol]       0.01155549 [kJ/mol]
  --------------------------------------------------------------------------------------------------------

*** Psi4 exiting successfully. Buy a developer a beer!
