                               Psi4 1.4rc3

  ==> Input File <==

--------------------------------------------------------------------------
# PSI4 file produced by CrystaLattE

# Generated from:               pyrazole.xyz
# Psithon input for N-mer:      2mer-0+255
# Number of atoms per monomer:  [9, 9]
# Number of replicas:           1
# COM priority:                 2.494573303288e-05
# Minimum COM separations:      18.111
# Separation priority:          4.610745723734e-05
# Minimum monomer separations:  14.757
# Cutoff priority:              1.653337677365e-06
# Nuclear repulsion energy:     371.1996724397908

memory 7 GB

molecule Dimer_0_255 {
  N            6.27981210      -4.25303372       0.19313865
  N            6.06870777      -2.28125697       1.80544317
  H            3.66871156      -5.64628941      -1.96684001
  H            0.69034521      -2.37545694      -0.42864236
  H            3.35917442       0.17650601       3.09265017
  H            7.35266782      -1.99461311       2.90680702
  C            3.77952586      -1.21508453       1.76858172
  C            2.38242998      -2.55505538       0.04607681
  C            4.01771468      -4.38410490      -0.88761863
--
  N          -20.41714710     -26.08126125      -7.94133892
  N          -20.29828483     -28.11916829      -6.40416521
  H          -17.74398436     -23.68035128      -8.65936928
  H          -14.84934780     -26.12289003      -5.90423177
  H          -17.78577187     -29.83593904      -3.99959546
  H          -21.76069305     -28.92914534      -6.01839988
  C          -18.01544843     -28.44934396      -5.37511636
  C          -16.53245600     -26.51967174      -6.26503882
  C          -18.09376133     -25.13450393      -7.85673677
units = au
no_com
no_reorient
}

set {
  e_convergence 10
  d_convergence 10
  scf_type df
  mp2_type df
  cc_type df
  freeze_core true
}

energy('sapt0/aug-cc-pvdz')

--------------------------------------------------------------------------

  //              Dimer HF             //
    Molecular point group: c1
  Charge       = 0
  Multiplicity = 1
  Basis Set: AUG-CC-PVDZ
    Blend: AUG-CC-PVDZ
  Basis Set: (AUG-CC-PVDZ AUX)
    Blend: AUG-CC-PVDZ-JKFIT
  @DF-RHF Final Energy:  -449.52478199571601
    Total Energy =                       -449.5247819957160118
  //            Monomer A HF           //
    Molecular point group: c1
  Multiplicity = 1
  Basis Set: AUG-CC-PVDZ
    Blend: AUG-CC-PVDZ
  Basis Set: (AUG-CC-PVDZ AUX)
    Blend: AUG-CC-PVDZ-JKFIT
  @DF-RHF Final Energy:  -224.76233952167374
    Total Energy =                       -224.7623395216737379
  //            Monomer B HF           //
    Molecular point group: c1

    Geometry (in Bohr), charge = 0, multiplicity = 1:

       Center              X                  Y                   Z               Mass
    ------------   -----------------  -----------------  -----------------  -----------------
      Gh(N)           6.279812100000    -4.253033720000     0.193138650000    14.003074004430
      Gh(N)           6.068707770000    -2.281256970000     1.805443170000    14.003074004430
      Gh(H)           3.668711560000    -5.646289410000    -1.966840010000     1.007825032230
      Gh(H)           0.690345210000    -2.375456940000    -0.428642360000     1.007825032230
      Gh(H)           3.359174420000     0.176506010000     3.092650170000     1.007825032230
      Gh(H)           7.352667820000    -1.994613110000     2.906807020000     1.007825032230
      Gh(C)           3.779525860000    -1.215084530000     1.768581720000    12.000000000000
      Gh(C)           2.382429980000    -2.555055380000     0.046076810000    12.000000000000
      Gh(C)           4.017714680000    -4.384104900000    -0.887618630000    12.000000000000
         N          -20.417147100000   -26.081261250000    -7.941338920000    14.003074004430
         N          -20.298284830000   -28.119168290000    -6.404165210000    14.003074004430
         H          -17.743984360000   -23.680351280000    -8.659369280000     1.007825032230
         H          -14.849347800000   -26.122890030000    -5.904231770000     1.007825032230
         H          -17.785771870000   -29.835939040000    -3.999595460000     1.007825032230
         H          -21.760693050000   -28.929145340000    -6.018399880000     1.007825032230
         C          -18.015448430000   -28.449343960000    -5.375116360000    12.000000000000
         C          -16.532456000000   -26.519671740000    -6.265038820000    12.000000000000
         C          -18.093761330000   -25.134503930000    -7.856736770000    12.000000000000

  Charge       = 0
  Multiplicity = 1
  Basis Set: AUG-CC-PVDZ
    Blend: AUG-CC-PVDZ
  Basis Set: (AUG-CC-PVDZ AUX)
    Blend: AUG-CC-PVDZ-JKFIT

    Orbital Energies [Eh]
    ---------------------

    Doubly Occupied:

       1A    -15.636233     2A    -15.592291     3A    -11.279903
       4A    -11.237759     5A    -11.209884     6A     -1.387001
       7A     -1.121894     8A     -1.066928     9A     -0.872759
      10A     -0.837039    11A     -0.757272    12A     -0.645745
      13A     -0.620828    14A     -0.609177    15A     -0.583905
      16A     -0.461413    17A     -0.370715    18A     -0.346055

  @DF-RHF Final Energy:  -224.76243506394027

   => Energetics <=

    Nuclear Repulsion Energy =            166.6286028299934401
    One-Electron Energy =                -633.5084734505535380
    Two-Electron Energy =                 242.1174355566198244
    Total Energy =                       -224.7624350639402735

  Dipole Moment: [D]
     X:     0.7394      Y:    -1.4336      Z:     1.7871     Total:     2.4074

    SAPT Results
  --------------------------------------------------------------------------------------------------------
    Electrostatics                 -0.00747509 [mEh]      -0.00469069 [kcal/mol]      -0.01962586 [kJ/mol]
      Elst10,r                     -0.00747509 [mEh]      -0.00469069 [kcal/mol]      -0.01962586 [kJ/mol]

    Exchange                        0.00000000 [mEh]       0.00000000 [kcal/mol]       0.00000000 [kJ/mol]
      Exch10                        0.00000000 [mEh]       0.00000000 [kcal/mol]       0.00000000 [kJ/mol]
      Exch10(S^2)                   0.00000000 [mEh]       0.00000000 [kcal/mol]       0.00000000 [kJ/mol]

    Induction                       0.00006499 [mEh]       0.00004078 [kcal/mol]       0.00017064 [kJ/mol]
      Ind20,r                      -0.00001563 [mEh]      -0.00000981 [kcal/mol]      -0.00004103 [kJ/mol]
      Exch-Ind20,r                  0.00000000 [mEh]       0.00000000 [kcal/mol]       0.00000000 [kJ/mol]
      delta HF,r (2)                0.00008062 [mEh]       0.00005059 [kcal/mol]       0.00021167 [kJ/mol]

    Dispersion                     -0.00082190 [mEh]      -0.00051575 [kcal/mol]      -0.00215791 [kJ/mol]
      Disp20                       -0.00082190 [mEh]      -0.00051575 [kcal/mol]      -0.00215791 [kJ/mol]
      Exch-Disp20                   0.00000000 [mEh]       0.00000000 [kcal/mol]       0.00000000 [kJ/mol]
      Disp20 (SS)                  -0.00041095 [mEh]      -0.00025788 [kcal/mol]      -0.00107896 [kJ/mol]
      Disp20 (OS)                  -0.00041095 [mEh]      -0.00025788 [kcal/mol]      -0.00107896 [kJ/mol]
      Exch-Disp20 (SS)              0.00000000 [mEh]       0.00000000 [kcal/mol]       0.00000000 [kJ/mol]
      Exch-Disp20 (OS)              0.00000000 [mEh]       0.00000000 [kcal/mol]       0.00000000 [kJ/mol]

  Total HF                         -0.00741010 [mEh]      -0.00464991 [kcal/mol]      -0.01945522 [kJ/mol]
  Total SAPT0                      -0.00823201 [mEh]      -0.00516566 [kcal/mol]      -0.02161313 [kJ/mol]

  Special recipe for scaled SAPT0 (see Manual):
    Electrostatics sSAPT0          -0.00747509 [mEh]      -0.00469069 [kcal/mol]      -0.01962586 [kJ/mol]
    Exchange sSAPT0                 0.00000000 [mEh]       0.00000000 [kcal/mol]       0.00000000 [kJ/mol]
    Induction sSAPT0                0.00006499 [mEh]       0.00004078 [kcal/mol]       0.00017064 [kJ/mol]
    Dispersion sSAPT0              -0.00082190 [mEh]      -0.00051575 [kcal/mol]      -0.00215791 [kJ/mol]
  Total sSAPT0                     -0.00823201 [mEh]      -0.00516566 [kcal/mol]      -0.02161313 [kJ/mol]
  --------------------------------------------------------------------------------------------------------

*** Psi4 exiting successfully. Buy a developer a beer!
