                               Psi4 1.4rc3

  ==> Input File <==

--------------------------------------------------------------------------
# PSI4 file produced by CrystaLattE

# Generated from:               pyrazole.xyz
# Psithon input for N-mer:      2mer-0+475
# Number of atoms per monomer:  [9, 9]
# Number of replicas:           1
# COM priority:                 2.112303347258e-05
# Minimum COM separations:      19.143
# Separation priority:          3.498916093304e-05
# Minimum monomer separations:  16.179
# Cutoff priority:              1.144400495544e-06
# Nuclear repulsion energy:     369.065119063472

memory 7 GB

molecule Dimer_0_475 {
  N            6.27981210      -4.25303372       0.19313865
  N            6.06870777      -2.28125697       1.80544317
  H            3.66871156      -5.64628941      -1.96684001
  H            0.69034521      -2.37545694      -0.42864236
  H            3.35917442       0.17650601       3.09265017
  H            7.35266782      -1.99461311       2.90680702
  C            3.77952586      -1.21508453       1.76858172
  C            2.38242998      -2.55505538       0.04607681
  C            4.01771468      -4.38410490      -0.88761863
--
  N           33.75185229     -21.38696250      -4.81169931
  N           33.87071455     -19.34905546      -6.34887303
  H           36.42501503     -23.78787247      -4.09366896
  H           39.31965158     -21.34533372      -6.84880646
  H           36.38322751     -17.63228471      -8.75344277
  H           32.40830634     -18.53907841      -6.73463836
  C           36.15355095     -19.01887980      -7.37792188
  C           37.63654339     -20.94855201      -6.48799941
  C           36.07523806     -22.33371982      -4.89630146
units = au
no_com
no_reorient
}

set {
  e_convergence 10
  d_convergence 10
  scf_type df
  mp2_type df
  cc_type df
  freeze_core true
}

energy('sapt0/aug-cc-pvdz')

--------------------------------------------------------------------------

  //              Dimer HF             //
    Molecular point group: c1
  Charge       = 0
  Multiplicity = 1
  Basis Set: AUG-CC-PVDZ
    Blend: AUG-CC-PVDZ
  Basis Set: (AUG-CC-PVDZ AUX)
    Blend: AUG-CC-PVDZ-JKFIT
  @DF-RHF Final Energy:  -449.52478081110098
    Total Energy =                       -449.5247808111009817
  //            Monomer A HF           //
    Molecular point group: c1
  Multiplicity = 1
  Basis Set: AUG-CC-PVDZ
    Blend: AUG-CC-PVDZ
  Basis Set: (AUG-CC-PVDZ AUX)
    Blend: AUG-CC-PVDZ-JKFIT
  @DF-RHF Final Energy:  -224.76233952186374
    Total Energy =                       -224.7623395218637370
  //            Monomer B HF           //
    Molecular point group: c1

    Geometry (in Bohr), charge = 0, multiplicity = 1:

       Center              X                  Y                   Z               Mass
    ------------   -----------------  -----------------  -----------------  -----------------
      Gh(N)           6.279812100000    -4.253033720000     0.193138650000    14.003074004430
      Gh(N)           6.068707770000    -2.281256970000     1.805443170000    14.003074004430
      Gh(H)           3.668711560000    -5.646289410000    -1.966840010000     1.007825032230
      Gh(H)           0.690345210000    -2.375456940000    -0.428642360000     1.007825032230
      Gh(H)           3.359174420000     0.176506010000     3.092650170000     1.007825032230
      Gh(H)           7.352667820000    -1.994613110000     2.906807020000     1.007825032230
      Gh(C)           3.779525860000    -1.215084530000     1.768581720000    12.000000000000
      Gh(C)           2.382429980000    -2.555055380000     0.046076810000    12.000000000000
      Gh(C)           4.017714680000    -4.384104900000    -0.887618630000    12.000000000000
         N           33.751852290000   -21.386962500000    -4.811699310000    14.003074004430
         N           33.870714550000   -19.349055460000    -6.348873030000    14.003074004430
         H           36.425015030000   -23.787872470000    -4.093668960000     1.007825032230
         H           39.319651580000   -21.345333720000    -6.848806460000     1.007825032230
         H           36.383227510000   -17.632284710000    -8.753442770000     1.007825032230
         H           32.408306340000   -18.539078410000    -6.734638360000     1.007825032230
         C           36.153550950000   -19.018879800000    -7.377921880000    12.000000000000
         C           37.636543390000   -20.948552010000    -6.487999410000    12.000000000000
         C           36.075238060000   -22.333719820000    -4.896301460000    12.000000000000

  Charge       = 0
  Multiplicity = 1
  Basis Set: AUG-CC-PVDZ
    Blend: AUG-CC-PVDZ
  Basis Set: (AUG-CC-PVDZ AUX)
    Blend: AUG-CC-PVDZ-JKFIT

    Orbital Energies [Eh]
    ---------------------

    Doubly Occupied:

       1A    -15.636233     2A    -15.592291     3A    -11.279903
       4A    -11.237759     5A    -11.209884     6A     -1.387001
       7A     -1.121894     8A     -1.066928     9A     -0.872759
      10A     -0.837039    11A     -0.757272    12A     -0.645745
      13A     -0.620828    14A     -0.609177    15A     -0.583905
      16A     -0.461413    17A     -0.370715    18A     -0.346055

  @DF-RHF Final Energy:  -224.76243506167432

   => Energetics <=

    Nuclear Repulsion Energy =            166.6286028215982640
    One-Electron Energy =                -633.5084734249122675
    Two-Electron Energy =                 242.1174355416396509
    Total Energy =                       -224.7624350616743243

  Dipole Moment: [D]
     X:     0.7394      Y:     1.4336      Z:    -1.7871     Total:     2.4074

    SAPT Results
  --------------------------------------------------------------------------------------------------------
    Electrostatics                 -0.00621642 [mEh]      -0.00390086 [kcal/mol]      -0.01632121 [kJ/mol]
      Elst10,r                     -0.00621642 [mEh]      -0.00390086 [kcal/mol]      -0.01632121 [kJ/mol]

    Exchange                        0.00000000 [mEh]       0.00000000 [kcal/mol]       0.00000000 [kJ/mol]
      Exch10                        0.00000000 [mEh]       0.00000000 [kcal/mol]       0.00000000 [kJ/mol]
      Exch10(S^2)                   0.00000000 [mEh]       0.00000000 [kcal/mol]       0.00000000 [kJ/mol]

    Induction                      -0.00001114 [mEh]      -0.00000699 [kcal/mol]      -0.00002925 [kJ/mol]
      Ind20,r                      -0.00005266 [mEh]      -0.00003305 [kcal/mol]      -0.00013826 [kJ/mol]
      Exch-Ind20,r                  0.00000000 [mEh]       0.00000000 [kcal/mol]       0.00000000 [kJ/mol]
      delta HF,r (2)                0.00004152 [mEh]       0.00002605 [kcal/mol]       0.00010901 [kJ/mol]

    Dispersion                     -0.00055002 [mEh]      -0.00034515 [kcal/mol]      -0.00144409 [kJ/mol]
      Disp20                       -0.00055002 [mEh]      -0.00034515 [kcal/mol]      -0.00144409 [kJ/mol]
      Exch-Disp20                   0.00000000 [mEh]       0.00000000 [kcal/mol]       0.00000000 [kJ/mol]
      Disp20 (SS)                  -0.00027501 [mEh]      -0.00017257 [kcal/mol]      -0.00072204 [kJ/mol]
      Disp20 (OS)                  -0.00027501 [mEh]      -0.00017257 [kcal/mol]      -0.00072204 [kJ/mol]
      Exch-Disp20 (SS)              0.00000000 [mEh]       0.00000000 [kcal/mol]       0.00000000 [kJ/mol]
      Exch-Disp20 (OS)              0.00000000 [mEh]       0.00000000 [kcal/mol]       0.00000000 [kJ/mol]

  Total HF                         -0.00622756 [mEh]      -0.00390785 [kcal/mol]      -0.01635046 [kJ/mol]
  Total SAPT0                      -0.00677759 [mEh]      -0.00425300 [kcal/mol]      -0.01779455 [kJ/mol]

  Special recipe for scaled SAPT0 (see Manual):
    Electrostatics sSAPT0          -0.00621642 [mEh]      -0.00390086 [kcal/mol]      -0.01632121 [kJ/mol]
    Exchange sSAPT0                 0.00000000 [mEh]       0.00000000 [kcal/mol]       0.00000000 [kJ/mol]
    Induction sSAPT0               -0.00001114 [mEh]      -0.00000699 [kcal/mol]      -0.00002925 [kJ/mol]
    Dispersion sSAPT0              -0.00055002 [mEh]      -0.00034515 [kcal/mol]      -0.00144409 [kJ/mol]
  Total sSAPT0                     -0.00677759 [mEh]      -0.00425300 [kcal/mol]      -0.01779455 [kJ/mol]
  --------------------------------------------------------------------------------------------------------

*** Psi4 exiting successfully. Buy a developer a beer!
