                               Psi4 1.4rc3

  ==> Input File <==

--------------------------------------------------------------------------
# PSI4 file produced by CrystaLattE

# Generated from:               pyrazole.xyz
# Psithon input for N-mer:      2mer-0+215
# Number of atoms per monomer:  [9, 9]
# Number of replicas:           1
# COM priority:                 3.425837028377e-05
# Minimum COM separations:      16.293
# Separation priority:          6.076287520824e-05
# Minimum monomer separations:  13.460
# Cutoff priority:              2.388825471133e-06
# Nuclear repulsion energy:     375.3396009695489

memory 7 GB

molecule Dimer_0_215 {
  N            6.27981210      -4.25303372       0.19313865
  N            6.06870777      -2.28125697       1.80544317
  H            3.66871156      -5.64628941      -1.96684001
  H            0.69034521      -2.37545694      -0.42864236
  H            3.35917442       0.17650601       3.09265017
  H            7.35266782      -1.99461311       2.90680702
  C            3.77952586      -1.21508453       1.76858172
  C            2.38242998      -2.55505538       0.04607681
  C            4.01771468      -4.38410490      -0.88761863
--
  N           10.53656684      21.49448368      17.65689117
  N           10.65542910      19.45657665      19.19406489
  H           13.20972957      23.89539365      16.93886082
  H           16.10436613      21.45285491      19.69399832
  H           13.16794206      17.73980589      21.59863463
  H            9.19302089      18.64659959      19.57983022
  C           12.93826550      19.12640098      20.22311374
  C           14.42125794      21.05607319      19.33319127
  C           12.85995261      22.44124101      17.74149332
units = au
no_com
no_reorient
}

set {
  e_convergence 10
  d_convergence 10
  scf_type df
  mp2_type df
  cc_type df
  freeze_core true
}

energy('sapt0/aug-cc-pvdz')

--------------------------------------------------------------------------

  //              Dimer HF             //
    Molecular point group: c1
  Charge       = 0
  Multiplicity = 1
  Basis Set: AUG-CC-PVDZ
    Blend: AUG-CC-PVDZ
  Basis Set: (AUG-CC-PVDZ AUX)
    Blend: AUG-CC-PVDZ-JKFIT
  @DF-RHF Final Energy:  -449.52477565096257
    Total Energy =                       -449.5247756509625106
  //            Monomer A HF           //
    Molecular point group: c1
  Multiplicity = 1
  Basis Set: AUG-CC-PVDZ
    Blend: AUG-CC-PVDZ
  Basis Set: (AUG-CC-PVDZ AUX)
    Blend: AUG-CC-PVDZ-JKFIT
  @DF-RHF Final Energy:  -224.76233952154450
    Total Energy =                       -224.7623395215445044
  //            Monomer B HF           //
    Molecular point group: c1

    Geometry (in Bohr), charge = 0, multiplicity = 1:

       Center              X                  Y                   Z               Mass
    ------------   -----------------  -----------------  -----------------  -----------------
      Gh(N)           6.279812100000    -4.253033720000     0.193138650000    14.003074004430
      Gh(N)           6.068707770000    -2.281256970000     1.805443170000    14.003074004430
      Gh(H)           3.668711560000    -5.646289410000    -1.966840010000     1.007825032230
      Gh(H)           0.690345210000    -2.375456940000    -0.428642360000     1.007825032230
      Gh(H)           3.359174420000     0.176506010000     3.092650170000     1.007825032230
      Gh(H)           7.352667820000    -1.994613110000     2.906807020000     1.007825032230
      Gh(C)           3.779525860000    -1.215084530000     1.768581720000    12.000000000000
      Gh(C)           2.382429980000    -2.555055380000     0.046076810000    12.000000000000
      Gh(C)           4.017714680000    -4.384104900000    -0.887618630000    12.000000000000
         N           10.536566840000    21.494483680000    17.656891170000    14.003074004430
         N           10.655429100000    19.456576650000    19.194064890000    14.003074004430
         H           13.209729570000    23.895393650000    16.938860820000     1.007825032230
         H           16.104366130000    21.452854910000    19.693998320000     1.007825032230
         H           13.167942060000    17.739805890000    21.598634630000     1.007825032230
         H            9.193020890000    18.646599590000    19.579830220000     1.007825032230
         C           12.938265500000    19.126400980000    20.223113740000    12.000000000000
         C           14.421257940000    21.056073190000    19.333191270000    12.000000000000
         C           12.859952610000    22.441241010000    17.741493320000    12.000000000000

  Charge       = 0
  Multiplicity = 1
  Basis Set: AUG-CC-PVDZ
    Blend: AUG-CC-PVDZ
  Basis Set: (AUG-CC-PVDZ AUX)
    Blend: AUG-CC-PVDZ-JKFIT

    Orbital Energies [Eh]
    ---------------------

    Doubly Occupied:

       1A    -15.636233     2A    -15.592291     3A    -11.279903
       4A    -11.237759     5A    -11.209884     6A     -1.387001
       7A     -1.121894     8A     -1.066928     9A     -0.872759
      10A     -0.837039    11A     -0.757272    12A     -0.645745
      13A     -0.620828    14A     -0.609177    15A     -0.583905
      16A     -0.461413    17A     -0.370715    18A     -0.346055

  @DF-RHF Final Energy:  -224.76243506268091

   => Energetics <=

    Nuclear Repulsion Energy =            166.6286028180448966
    One-Electron Energy =                -633.5084734233191739
    Two-Electron Energy =                 242.1174355425933697
    Total Energy =                       -224.7624350626809075

  Dipole Moment: [D]
     X:     0.7394      Y:    -1.4336      Z:     1.7871     Total:     2.4074

    SAPT Results
  --------------------------------------------------------------------------------------------------------
    Electrostatics                 -0.00099100 [mEh]      -0.00062186 [kcal/mol]      -0.00260187 [kJ/mol]
      Elst10,r                     -0.00099100 [mEh]      -0.00062186 [kcal/mol]      -0.00260187 [kJ/mol]

    Exchange                        0.00000000 [mEh]       0.00000000 [kcal/mol]       0.00000000 [kJ/mol]
      Exch10                        0.00000000 [mEh]       0.00000000 [kcal/mol]       0.00000000 [kJ/mol]
      Exch10(S^2)                   0.00000000 [mEh]       0.00000000 [kcal/mol]       0.00000000 [kJ/mol]

    Induction                      -0.00007574 [mEh]      -0.00004753 [kcal/mol]      -0.00019885 [kJ/mol]
      Ind20,r                      -0.00013016 [mEh]      -0.00008168 [kcal/mol]      -0.00034174 [kJ/mol]
      Exch-Ind20,r                  0.00000000 [mEh]       0.00000000 [kcal/mol]       0.00000000 [kJ/mol]
      delta HF,r (2)                0.00005442 [mEh]       0.00003415 [kcal/mol]       0.00014289 [kJ/mol]

    Dispersion                     -0.00137803 [mEh]      -0.00086472 [kcal/mol]      -0.00361801 [kJ/mol]
      Disp20                       -0.00137803 [mEh]      -0.00086472 [kcal/mol]      -0.00361801 [kJ/mol]
      Exch-Disp20                   0.00000000 [mEh]       0.00000000 [kcal/mol]       0.00000000 [kJ/mol]
      Disp20 (SS)                  -0.00068901 [mEh]      -0.00043236 [kcal/mol]      -0.00180900 [kJ/mol]
      Disp20 (OS)                  -0.00068901 [mEh]      -0.00043236 [kcal/mol]      -0.00180900 [kJ/mol]
      Exch-Disp20 (SS)              0.00000000 [mEh]       0.00000000 [kcal/mol]       0.00000000 [kJ/mol]
      Exch-Disp20 (OS)              0.00000000 [mEh]       0.00000000 [kcal/mol]       0.00000000 [kJ/mol]

  Total HF                         -0.00106674 [mEh]      -0.00066939 [kcal/mol]      -0.00280072 [kJ/mol]
  Total SAPT0                      -0.00244476 [mEh]      -0.00153411 [kcal/mol]      -0.00641872 [kJ/mol]

  Special recipe for scaled SAPT0 (see Manual):
    Electrostatics sSAPT0          -0.00099100 [mEh]      -0.00062186 [kcal/mol]      -0.00260187 [kJ/mol]
    Exchange sSAPT0                 0.00000000 [mEh]       0.00000000 [kcal/mol]       0.00000000 [kJ/mol]
    Induction sSAPT0               -0.00007574 [mEh]      -0.00004753 [kcal/mol]      -0.00019885 [kJ/mol]
    Dispersion sSAPT0              -0.00137803 [mEh]      -0.00086472 [kcal/mol]      -0.00361801 [kJ/mol]
  Total sSAPT0                     -0.00244476 [mEh]      -0.00153411 [kcal/mol]      -0.00641872 [kJ/mol]
  --------------------------------------------------------------------------------------------------------

*** Psi4 exiting successfully. Buy a developer a beer!
