                               Psi4 1.4rc3

  ==> Input File <==

--------------------------------------------------------------------------
# PSI4 file produced by CrystaLattE

# Generated from:               pyrazole.xyz
# Psithon input for N-mer:      2mer-0+427
# Number of atoms per monomer:  [9, 9]
# Number of replicas:           2
# COM priority:                 1.588734765797e-05
# Minimum COM separations:      21.050
# Separation priority:          2.233295111772e-05
# Minimum monomer separations:  18.791
# Cutoff priority:              6.289191524163e-07
# Nuclear repulsion energy:     365.80625792871456

memory 7 GB

molecule Dimer_0_427 {
  N            6.27981210      -4.25303372       0.19313865
  N            6.06870777      -2.28125697       1.80544317
  H            3.66871156      -5.64628941      -1.96684001
  H            0.69034521      -2.37545694      -0.42864236
  H            3.35917442       0.17650601       3.09265017
  H            7.35266782      -1.99461311       2.90680702
  C            3.77952586      -1.21508453       1.76858172
  C            2.38242998      -2.55505538       0.04607681
  C            4.01771468      -4.38410490      -0.88761863
--
  N           21.75666907      16.25449114     -31.80464897
  N           21.54556474      14.28271439     -30.19234445
  H           19.14556853      17.64774683     -33.96462763
  H           16.16720217      14.37691436     -32.42642998
  H           18.83603139      11.82495140     -28.90513745
  H           22.82952479      13.99607052     -29.09098060
  C           19.25638282      13.21654194     -30.22920590
  C           17.85928694      14.55651280     -31.95171081
  C           19.49457165      16.38556231     -32.88540625
units = au
no_com
no_reorient
}

set {
  e_convergence 10
  d_convergence 10
  scf_type df
  mp2_type df
  cc_type df
  freeze_core true
}

energy('sapt0/aug-cc-pvdz')

--------------------------------------------------------------------------

  //              Dimer HF             //
    Molecular point group: c1
  Charge       = 0
  Multiplicity = 1
  Basis Set: AUG-CC-PVDZ
    Blend: AUG-CC-PVDZ
  Basis Set: (AUG-CC-PVDZ AUX)
    Blend: AUG-CC-PVDZ-JKFIT
  @DF-RHF Final Energy:  -449.52469814348478
    Total Energy =                       -449.5246981434847839
  //            Monomer A HF           //
    Molecular point group: c1
  Multiplicity = 1
  Basis Set: AUG-CC-PVDZ
    Blend: AUG-CC-PVDZ
  Basis Set: (AUG-CC-PVDZ AUX)
    Blend: AUG-CC-PVDZ-JKFIT
  @DF-RHF Final Energy:  -224.76233952196048
    Total Energy =                       -224.7623395219604845
  //            Monomer B HF           //
    Molecular point group: c1

    Geometry (in Bohr), charge = 0, multiplicity = 1:

       Center              X                  Y                   Z               Mass
    ------------   -----------------  -----------------  -----------------  -----------------
      Gh(N)           6.279812100000    -4.253033720000     0.193138650000    14.003074004430
      Gh(N)           6.068707770000    -2.281256970000     1.805443170000    14.003074004430
      Gh(H)           3.668711560000    -5.646289410000    -1.966840010000     1.007825032230
      Gh(H)           0.690345210000    -2.375456940000    -0.428642360000     1.007825032230
      Gh(H)           3.359174420000     0.176506010000     3.092650170000     1.007825032230
      Gh(H)           7.352667820000    -1.994613110000     2.906807020000     1.007825032230
      Gh(C)           3.779525860000    -1.215084530000     1.768581720000    12.000000000000
      Gh(C)           2.382429980000    -2.555055380000     0.046076810000    12.000000000000
      Gh(C)           4.017714680000    -4.384104900000    -0.887618630000    12.000000000000
         N           21.756669070000    16.254491140000   -31.804648970000    14.003074004430
         N           21.545564740000    14.282714390000   -30.192344450000    14.003074004430
         H           19.145568530000    17.647746830000   -33.964627630000     1.007825032230
         H           16.167202170000    14.376914360000   -32.426429980000     1.007825032230
         H           18.836031390000    11.824951400000   -28.905137450000     1.007825032230
         H           22.829524790000    13.996070520000   -29.090980600000     1.007825032230
         C           19.256382820000    13.216541940000   -30.229205900000    12.000000000000
         C           17.859286940000    14.556512800000   -31.951710810000    12.000000000000
         C           19.494571650000    16.385562310000   -32.885406250000    12.000000000000

  Charge       = 0
  Multiplicity = 1
  Basis Set: AUG-CC-PVDZ
    Blend: AUG-CC-PVDZ
  Basis Set: (AUG-CC-PVDZ AUX)
    Blend: AUG-CC-PVDZ-JKFIT

    Orbital Energies [Eh]
    ---------------------

    Doubly Occupied:

       1A    -15.636223     2A    -15.592313     3A    -11.279894
       4A    -11.237784     5A    -11.209891     6A     -1.386922
       7A     -1.121901     8A     -1.066898     9A     -0.872768
      10A     -0.837061    11A     -0.757292    12A     -0.645746
      13A     -0.620834    14A     -0.609140    15A     -0.583920
      16A     -0.461404    17A     -0.370721    18A     -0.346048

  @DF-RHF Final Energy:  -224.76233952216435

   => Energetics <=

    Nuclear Repulsion Energy =            166.6240562386995236
    One-Electron Energy =                -633.4992729727342748
    Two-Electron Energy =                 242.1128772118704262
    Total Energy =                       -224.7623395221643534

  Dipole Moment: [D]
     X:    -1.0235      Y:    -1.6055      Z:     1.4733     Total:     2.4075

    SAPT Results
  --------------------------------------------------------------------------------------------------------
    Electrostatics                 -0.01913938 [mEh]      -0.01201014 [kcal/mol]      -0.05025043 [kJ/mol]
      Elst10,r                     -0.01913938 [mEh]      -0.01201014 [kcal/mol]      -0.05025043 [kJ/mol]

    Exchange                        0.00000000 [mEh]       0.00000000 [kcal/mol]       0.00000000 [kJ/mol]
      Exch10                        0.00000000 [mEh]       0.00000000 [kcal/mol]       0.00000000 [kJ/mol]
      Exch10(S^2)                   0.00000000 [mEh]       0.00000000 [kcal/mol]       0.00000000 [kJ/mol]

    Induction                       0.00004002 [mEh]       0.00002511 [kcal/mol]       0.00010506 [kJ/mol]
      Ind20,r                      -0.00002617 [mEh]      -0.00001642 [kcal/mol]      -0.00006872 [kJ/mol]
      Exch-Ind20,r                  0.00000000 [mEh]       0.00000000 [kcal/mol]       0.00000000 [kJ/mol]
      delta HF,r (2)                0.00006619 [mEh]       0.00004154 [kcal/mol]       0.00017378 [kJ/mol]

    Dispersion                     -0.00027510 [mEh]      -0.00017263 [kcal/mol]      -0.00072227 [kJ/mol]
      Disp20                       -0.00027510 [mEh]      -0.00017263 [kcal/mol]      -0.00072227 [kJ/mol]
      Exch-Disp20                   0.00000000 [mEh]       0.00000000 [kcal/mol]       0.00000000 [kJ/mol]
      Disp20 (SS)                  -0.00013755 [mEh]      -0.00008631 [kcal/mol]      -0.00036114 [kJ/mol]
      Disp20 (OS)                  -0.00013755 [mEh]      -0.00008631 [kcal/mol]      -0.00036114 [kJ/mol]
      Exch-Disp20 (SS)              0.00000000 [mEh]       0.00000000 [kcal/mol]       0.00000000 [kJ/mol]
      Exch-Disp20 (OS)              0.00000000 [mEh]       0.00000000 [kcal/mol]       0.00000000 [kJ/mol]

  Total HF                         -0.01909936 [mEh]      -0.01198503 [kcal/mol]      -0.05014536 [kJ/mol]
  Total SAPT0                      -0.01937446 [mEh]      -0.01215766 [kcal/mol]      -0.05086764 [kJ/mol]

  Special recipe for scaled SAPT0 (see Manual):
    Electrostatics sSAPT0          -0.01913938 [mEh]      -0.01201014 [kcal/mol]      -0.05025043 [kJ/mol]
    Exchange sSAPT0                 0.00000000 [mEh]       0.00000000 [kcal/mol]       0.00000000 [kJ/mol]
    Induction sSAPT0                0.00004002 [mEh]       0.00002511 [kcal/mol]       0.00010506 [kJ/mol]
    Dispersion sSAPT0              -0.00027510 [mEh]      -0.00017263 [kcal/mol]      -0.00072227 [kJ/mol]
  Total sSAPT0                     -0.01937446 [mEh]      -0.01215766 [kcal/mol]      -0.05086764 [kJ/mol]
  --------------------------------------------------------------------------------------------------------

*** Psi4 exiting successfully. Buy a developer a beer!
