                               Psi4 1.4rc3

  ==> Input File <==

--------------------------------------------------------------------------
# PSI4 file produced by CrystaLattE

# Generated from:               pyrazole.xyz
# Psithon input for N-mer:      2mer-0+285
# Number of atoms per monomer:  [9, 9]
# Number of replicas:           1
# COM priority:                 2.659935046448e-05
# Minimum COM separations:      17.727
# Separation priority:          4.958089590823e-05
# Minimum monomer separations:  14.404
# Cutoff priority:              1.821457993792e-06
# Nuclear repulsion energy:     371.94695539855195

memory 7 GB

molecule Dimer_0_285 {
  N            6.27981210      -4.25303372       0.19313865
  N            6.06870777      -2.28125697       1.80544317
  H            3.66871156      -5.64628941      -1.96684001
  H            0.69034521      -2.37545694      -0.42864236
  H            3.35917442       0.17650601       3.09265017
  H            7.35266782      -1.99461311       2.90680702
  C            3.77952586      -1.21508453       1.76858172
  C            2.38242998      -2.55505538       0.04607681
  C            4.01771468      -4.38410490      -0.88761863
--
  N           26.01342381      21.49448368       4.85777613
  N           26.13228607      19.45657665       6.39494984
  H           28.68658654      23.89539365       4.13974577
  H           31.58122310      21.45285491       6.89488328
  H           28.64479903      17.73980589       8.79951959
  H           24.66987785      18.64659959       6.78071517
  C           28.41512247      19.12640098       7.42399869
  C           29.89811491      21.05607319       6.53407622
  C           28.33680957      22.44124101       4.94237828
units = au
no_com
no_reorient
}

set {
  e_convergence 10
  d_convergence 10
  scf_type df
  mp2_type df
  cc_type df
  freeze_core true
}

energy('sapt0/aug-cc-pvdz')

--------------------------------------------------------------------------

  //              Dimer HF             //
    Molecular point group: c1
  Charge       = 0
  Multiplicity = 1
  Basis Set: AUG-CC-PVDZ
    Blend: AUG-CC-PVDZ
  Basis Set: (AUG-CC-PVDZ AUX)
    Blend: AUG-CC-PVDZ-JKFIT
  @DF-RHF Final Energy:  -449.52475303030133
    Total Energy =                       -449.5247530303013264
  //            Monomer A HF           //
    Molecular point group: c1
  Multiplicity = 1
  Basis Set: AUG-CC-PVDZ
    Blend: AUG-CC-PVDZ
  Basis Set: (AUG-CC-PVDZ AUX)
    Blend: AUG-CC-PVDZ-JKFIT
  @DF-RHF Final Energy:  -224.76233952206096
    Total Energy =                       -224.7623395220609552
  //            Monomer B HF           //
    Molecular point group: c1

    Geometry (in Bohr), charge = 0, multiplicity = 1:

       Center              X                  Y                   Z               Mass
    ------------   -----------------  -----------------  -----------------  -----------------
      Gh(N)           6.279812100000    -4.253033720000     0.193138650000    14.003074004430
      Gh(N)           6.068707770000    -2.281256970000     1.805443170000    14.003074004430
      Gh(H)           3.668711560000    -5.646289410000    -1.966840010000     1.007825032230
      Gh(H)           0.690345210000    -2.375456940000    -0.428642360000     1.007825032230
      Gh(H)           3.359174420000     0.176506010000     3.092650170000     1.007825032230
      Gh(H)           7.352667820000    -1.994613110000     2.906807020000     1.007825032230
      Gh(C)           3.779525860000    -1.215084530000     1.768581720000    12.000000000000
      Gh(C)           2.382429980000    -2.555055380000     0.046076810000    12.000000000000
      Gh(C)           4.017714680000    -4.384104900000    -0.887618630000    12.000000000000
         N           26.013423810000    21.494483680000     4.857776130000    14.003074004430
         N           26.132286070000    19.456576650000     6.394949840000    14.003074004430
         H           28.686586540000    23.895393650000     4.139745770000     1.007825032230
         H           31.581223100000    21.452854910000     6.894883280000     1.007825032230
         H           28.644799030000    17.739805890000     8.799519590000     1.007825032230
         H           24.669877850000    18.646599590000     6.780715170000     1.007825032230
         C           28.415122470000    19.126400980000     7.423998690000    12.000000000000
         C           29.898114910000    21.056073190000     6.534076220000    12.000000000000
         C           28.336809570000    22.441241010000     4.942378280000    12.000000000000

  Charge       = 0
  Multiplicity = 1
  Basis Set: AUG-CC-PVDZ
    Blend: AUG-CC-PVDZ
  Basis Set: (AUG-CC-PVDZ AUX)
    Blend: AUG-CC-PVDZ-JKFIT

    Orbital Energies [Eh]
    ---------------------

    Doubly Occupied:

       1A    -15.636233     2A    -15.592291     3A    -11.279903
       4A    -11.237759     5A    -11.209884     6A     -1.387001
       7A     -1.121894     8A     -1.066928     9A     -0.872759
      10A     -0.837039    11A     -0.757272    12A     -0.645745
      13A     -0.620828    14A     -0.609177    15A     -0.583905
      16A     -0.461413    17A     -0.370715    18A     -0.346055

  @DF-RHF Final Energy:  -224.76243506490758

   => Energetics <=

    Nuclear Repulsion Energy =            166.6286029218337887
    One-Electron Energy =                -633.5084736334310946
    Two-Electron Energy =                 242.1174356466896995
    Total Energy =                       -224.7624350649075780

  Dipole Moment: [D]
     X:     0.7394      Y:    -1.4336      Z:     1.7871     Total:     2.4074

    SAPT Results
  --------------------------------------------------------------------------------------------------------
    Electrostatics                  0.02156606 [mEh]       0.01353291 [kcal/mol]       0.05662169 [kJ/mol]
      Elst10,r                      0.02156606 [mEh]       0.01353291 [kcal/mol]       0.05662169 [kJ/mol]

    Exchange                        0.00000000 [mEh]       0.00000000 [kcal/mol]       0.00000000 [kJ/mol]
      Exch10                        0.00000000 [mEh]       0.00000000 [kcal/mol]       0.00000000 [kJ/mol]
      Exch10(S^2)                   0.00000000 [mEh]       0.00000000 [kcal/mol]       0.00000000 [kJ/mol]

    Induction                      -0.00000940 [mEh]      -0.00000590 [kcal/mol]      -0.00002467 [kJ/mol]
      Ind20,r                      -0.00005948 [mEh]      -0.00003733 [kcal/mol]      -0.00015617 [kJ/mol]
      Exch-Ind20,r                  0.00000000 [mEh]       0.00000000 [kcal/mol]       0.00000000 [kJ/mol]
      delta HF,r (2)                0.00005009 [mEh]       0.00003143 [kcal/mol]       0.00013150 [kJ/mol]

    Dispersion                     -0.00085694 [mEh]      -0.00053774 [kcal/mol]      -0.00224990 [kJ/mol]
      Disp20                       -0.00085694 [mEh]      -0.00053774 [kcal/mol]      -0.00224990 [kJ/mol]
      Exch-Disp20                   0.00000000 [mEh]       0.00000000 [kcal/mol]       0.00000000 [kJ/mol]
      Disp20 (SS)                  -0.00042847 [mEh]      -0.00026887 [kcal/mol]      -0.00112495 [kJ/mol]
      Disp20 (OS)                  -0.00042847 [mEh]      -0.00026887 [kcal/mol]      -0.00112495 [kJ/mol]
      Exch-Disp20 (SS)              0.00000000 [mEh]       0.00000000 [kcal/mol]       0.00000000 [kJ/mol]
      Exch-Disp20 (OS)              0.00000000 [mEh]       0.00000000 [kcal/mol]       0.00000000 [kJ/mol]

  Total HF                          0.02155667 [mEh]       0.01352701 [kcal/mol]       0.05659702 [kJ/mol]
  Total SAPT0                       0.02069972 [mEh]       0.01298927 [kcal/mol]       0.05434712 [kJ/mol]

  Special recipe for scaled SAPT0 (see Manual):
    Electrostatics sSAPT0           0.02156606 [mEh]       0.01353291 [kcal/mol]       0.05662169 [kJ/mol]
    Exchange sSAPT0                 0.00000000 [mEh]       0.00000000 [kcal/mol]       0.00000000 [kJ/mol]
    Induction sSAPT0               -0.00000940 [mEh]      -0.00000590 [kcal/mol]      -0.00002467 [kJ/mol]
    Dispersion sSAPT0              -0.00085694 [mEh]      -0.00053774 [kcal/mol]      -0.00224990 [kJ/mol]
  Total sSAPT0                      0.02069972 [mEh]       0.01298927 [kcal/mol]       0.05434712 [kJ/mol]
  --------------------------------------------------------------------------------------------------------

*** Psi4 exiting successfully. Buy a developer a beer!
