                               Psi4 1.4rc3

  ==> Input File <==

--------------------------------------------------------------------------
# PSI4 file produced by CrystaLattE

# Generated from:               pyrazole.xyz
# Psithon input for N-mer:      2mer-0+41
# Number of atoms per monomer:  [9, 9]
# Number of replicas:           1
# COM priority:                 1.310170077608e-04
# Minimum COM separations:      10.419
# Separation priority:          3.753931578971e-04
# Minimum monomer separations:  7.336
# Cutoff priority:              2.707998816769e-05
# Nuclear repulsion energy:     399.42607412073477

memory 7 GB

molecule Dimer_0_41 {
  N            6.27981210      -4.25303372       0.19313865
  N            6.06870777      -2.28125697       1.80544317
  H            3.66871156      -5.64628941      -1.96684001
  H            0.69034521      -2.37545694      -0.42864236
  H            3.35917442       0.17650601       3.09265017
  H            7.35266782      -1.99461311       2.90680702
  C            3.77952586      -1.21508453       1.76858172
  C            2.38242998      -2.55505538       0.04607681
  C            4.01771468      -4.38410490      -0.88761863
--
  N          -12.67871861     -14.18732502       1.58785821
  N          -12.55985635     -16.22523205       0.05068450
  H          -10.00555588     -11.78641505       2.30588857
  H           -7.11091932     -14.22895380      -0.44924894
  H          -10.04734339     -17.94200281      -2.35388525
  H          -14.02226457     -17.03520911      -0.33508083
  C          -10.27701995     -16.55540772      -0.97836435
  C           -8.79402751     -14.62573551      -0.08844188
  C          -10.35533284     -13.24056769       1.50325606
units = au
no_com
no_reorient
}

set {
  e_convergence 10
  d_convergence 10
  scf_type df
  mp2_type df
  cc_type df
  freeze_core true
}

energy('sapt0/aug-cc-pvdz')

--------------------------------------------------------------------------

  //              Dimer HF             //
    Molecular point group: c1
  Charge       = 0
  Multiplicity = 1
  Basis Set: AUG-CC-PVDZ
    Blend: AUG-CC-PVDZ
  Basis Set: (AUG-CC-PVDZ AUX)
    Blend: AUG-CC-PVDZ-JKFIT
  @DF-RHF Final Energy:  -449.52483691208221
    Total Energy =                       -449.5248369120822645
  //            Monomer A HF           //
    Molecular point group: c1
  Multiplicity = 1
  Basis Set: AUG-CC-PVDZ
    Blend: AUG-CC-PVDZ
  Basis Set: (AUG-CC-PVDZ AUX)
    Blend: AUG-CC-PVDZ-JKFIT
  @DF-RHF Final Energy:  -224.76234879635336
    Total Energy =                       -224.7623487963533648
  //            Monomer B HF           //
    Molecular point group: c1

    Geometry (in Bohr), charge = 0, multiplicity = 1:

       Center              X                  Y                   Z               Mass
    ------------   -----------------  -----------------  -----------------  -----------------
      Gh(N)           6.279812100000    -4.253033720000     0.193138650000    14.003074004430
      Gh(N)           6.068707770000    -2.281256970000     1.805443170000    14.003074004430
      Gh(H)           3.668711560000    -5.646289410000    -1.966840010000     1.007825032230
      Gh(H)           0.690345210000    -2.375456940000    -0.428642360000     1.007825032230
      Gh(H)           3.359174420000     0.176506010000     3.092650170000     1.007825032230
      Gh(H)           7.352667820000    -1.994613110000     2.906807020000     1.007825032230
      Gh(C)           3.779525860000    -1.215084530000     1.768581720000    12.000000000000
      Gh(C)           2.382429980000    -2.555055380000     0.046076810000    12.000000000000
      Gh(C)           4.017714680000    -4.384104900000    -0.887618630000    12.000000000000
         N          -12.678718610000   -14.187325020000     1.587858210000    14.003074004430
         N          -12.559856350000   -16.225232050000     0.050684500000    14.003074004430
         H          -10.005555880000   -11.786415050000     2.305888570000     1.007825032230
         H           -7.110919320000   -14.228953800000    -0.449248940000     1.007825032230
         H          -10.047343390000   -17.942002810000    -2.353885250000     1.007825032230
         H          -14.022264570000   -17.035209110000    -0.335080830000     1.007825032230
         C          -10.277019950000   -16.555407720000    -0.978364350000    12.000000000000
         C           -8.794027510000   -14.625735510000    -0.088441880000    12.000000000000
         C          -10.355332840000   -13.240567690000     1.503256060000    12.000000000000

  Charge       = 0
  Multiplicity = 1
  Basis Set: AUG-CC-PVDZ
    Blend: AUG-CC-PVDZ
  Basis Set: (AUG-CC-PVDZ AUX)
    Blend: AUG-CC-PVDZ-JKFIT

    Orbital Energies [Eh]
    ---------------------

    Doubly Occupied:

       1A    -15.636234     2A    -15.592291     3A    -11.279902
       4A    -11.237755     5A    -11.209879     6A     -1.387001
       7A     -1.121894     8A     -1.066928     9A     -0.872760
      10A     -0.837039    11A     -0.757272    12A     -0.645748
      13A     -0.620828    14A     -0.609177    15A     -0.583905
      16A     -0.461413    17A     -0.370715    18A     -0.346055

  @DF-RHF Final Energy:  -224.76244667130885

   => Energetics <=

    Nuclear Repulsion Energy =            166.6286028897218046
    One-Electron Energy =                -633.5085090550503537
    Two-Electron Energy =                 242.1174594940196698
    Total Energy =                       -224.7624466713088509

  Dipole Moment: [D]
     X:     0.7395      Y:    -1.4336      Z:    -1.7872     Total:     2.4075

    SAPT Results
  --------------------------------------------------------------------------------------------------------
    Electrostatics                 -0.04118094 [mEh]      -0.02584143 [kcal/mol]      -0.10812054 [kJ/mol]
      Elst10,r                     -0.04118094 [mEh]      -0.02584143 [kcal/mol]      -0.10812054 [kJ/mol]

    Exchange                       -0.00000000 [mEh]      -0.00000000 [kcal/mol]      -0.00000001 [kJ/mol]
      Exch10                       -0.00000000 [mEh]      -0.00000000 [kcal/mol]      -0.00000001 [kJ/mol]
      Exch10(S^2)                  -0.00000000 [mEh]      -0.00000000 [kcal/mol]      -0.00000001 [kJ/mol]

    Induction                      -0.00026348 [mEh]      -0.00016533 [kcal/mol]      -0.00069176 [kJ/mol]
      Ind20,r                      -0.00047319 [mEh]      -0.00029693 [kcal/mol]      -0.00124237 [kJ/mol]
      Exch-Ind20,r                  0.00000839 [mEh]       0.00000527 [kcal/mol]       0.00002204 [kJ/mol]
      delta HF,r (2)                0.00020132 [mEh]       0.00012633 [kcal/mol]       0.00052858 [kJ/mol]

    Dispersion                     -0.02691798 [mEh]      -0.01689129 [kcal/mol]      -0.07067316 [kJ/mol]
      Disp20                       -0.02691942 [mEh]      -0.01689219 [kcal/mol]      -0.07067694 [kJ/mol]
      Exch-Disp20                   0.00000144 [mEh]       0.00000090 [kcal/mol]       0.00000378 [kJ/mol]
      Disp20 (SS)                  -0.01345971 [mEh]      -0.00844610 [kcal/mol]      -0.03533847 [kJ/mol]
      Disp20 (OS)                  -0.01345971 [mEh]      -0.00844610 [kcal/mol]      -0.03533847 [kJ/mol]
      Exch-Disp20 (SS)              0.00000123 [mEh]       0.00000077 [kcal/mol]       0.00000322 [kJ/mol]
      Exch-Disp20 (OS)              0.00000021 [mEh]       0.00000013 [kcal/mol]       0.00000056 [kJ/mol]

  Total HF                         -0.04144442 [mEh]      -0.02600677 [kcal/mol]      -0.10881231 [kJ/mol]
  Total SAPT0                      -0.06836240 [mEh]      -0.04289806 [kcal/mol]      -0.17948547 [kJ/mol]

  Special recipe for scaled SAPT0 (see Manual):
    Electrostatics sSAPT0          -0.04118094 [mEh]      -0.02584143 [kcal/mol]      -0.10812054 [kJ/mol]
    Exchange sSAPT0                -0.00000000 [mEh]      -0.00000000 [kcal/mol]      -0.00000001 [kJ/mol]
    Induction sSAPT0               -0.00026348 [mEh]      -0.00016533 [kcal/mol]      -0.00069176 [kJ/mol]
    Dispersion sSAPT0              -0.02691798 [mEh]      -0.01689129 [kcal/mol]      -0.07067316 [kJ/mol]
  Total sSAPT0                     -0.06836240 [mEh]      -0.04289806 [kcal/mol]      -0.17948547 [kJ/mol]
  --------------------------------------------------------------------------------------------------------

*** Psi4 exiting successfully. Buy a developer a beer!
