                               Psi4 1.4rc3

  ==> Input File <==

--------------------------------------------------------------------------
# PSI4 file produced by CrystaLattE

# Generated from:               pyrazole.xyz
# Psithon input for N-mer:      2mer-0+274
# Number of atoms per monomer:  [9, 9]
# Number of replicas:           2
# COM priority:                 3.298365032186e-05
# Minimum COM separations:      16.501
# Separation priority:          4.101086386853e-05
# Minimum monomer separations:  15.345
# Cutoff priority:              1.414268570331e-06
# Nuclear repulsion energy:     374.607754644563

memory 7 GB

molecule Dimer_0_274 {
  N            6.27981210      -4.25303372       0.19313865
  N            6.06870777      -2.28125697       1.80544317
  H            3.66871156      -5.64628941      -1.96684001
  H            0.69034521      -2.37545694      -0.42864236
  H            3.35917442       0.17650601       3.09265017
  H            7.35266782      -1.99461311       2.90680702
  C            3.77952586      -1.21508453       1.76858172
  C            2.38242998      -2.55505538       0.04607681
  C            4.01771468      -4.38410490      -0.88761863
--
  N           -1.45861638     -19.42731757      25.45116826
  N           -1.66972071     -21.39909431      23.83886374
  H           -4.06971692     -18.03406187      27.61114692
  H           -7.04808328     -21.30489434      26.07294927
  H           -4.37925406     -23.85685730      22.55165674
  H           -0.38576066     -21.68573818      22.73749989
  C           -3.95890263     -22.46526676      23.87572519
  C           -5.35599851     -21.12529590      25.59823010
  C           -3.72071380     -19.29624639      26.53192554
units = au
no_com
no_reorient
}

set {
  e_convergence 10
  d_convergence 10
  scf_type df
  mp2_type df
  cc_type df
  freeze_core true
}

energy('sapt0/aug-cc-pvdz')

--------------------------------------------------------------------------

  //              Dimer HF             //
    Molecular point group: c1
  Charge       = 0
  Multiplicity = 1
  Basis Set: AUG-CC-PVDZ
    Blend: AUG-CC-PVDZ
  Basis Set: (AUG-CC-PVDZ AUX)
    Blend: AUG-CC-PVDZ-JKFIT
  @DF-RHF Final Energy:  -449.52470948781672
    Total Energy =                       -449.5247094878167218
  //            Monomer A HF           //
    Molecular point group: c1
  Multiplicity = 1
  Basis Set: AUG-CC-PVDZ
    Blend: AUG-CC-PVDZ
  Basis Set: (AUG-CC-PVDZ AUX)
    Blend: AUG-CC-PVDZ-JKFIT
  @DF-RHF Final Energy:  -224.76233952307254
    Total Energy =                       -224.7623395230725407
  //            Monomer B HF           //
    Molecular point group: c1

    Geometry (in Bohr), charge = 0, multiplicity = 1:

       Center              X                  Y                   Z               Mass
    ------------   -----------------  -----------------  -----------------  -----------------
      Gh(N)           6.279812100000    -4.253033720000     0.193138650000    14.003074004430
      Gh(N)           6.068707770000    -2.281256970000     1.805443170000    14.003074004430
      Gh(H)           3.668711560000    -5.646289410000    -1.966840010000     1.007825032230
      Gh(H)           0.690345210000    -2.375456940000    -0.428642360000     1.007825032230
      Gh(H)           3.359174420000     0.176506010000     3.092650170000     1.007825032230
      Gh(H)           7.352667820000    -1.994613110000     2.906807020000     1.007825032230
      Gh(C)           3.779525860000    -1.215084530000     1.768581720000    12.000000000000
      Gh(C)           2.382429980000    -2.555055380000     0.046076810000    12.000000000000
      Gh(C)           4.017714680000    -4.384104900000    -0.887618630000    12.000000000000
         N           -1.458616380000   -19.427317570000    25.451168260000    14.003074004430
         N           -1.669720710000   -21.399094310000    23.838863740000    14.003074004430
         H           -4.069716920000   -18.034061870000    27.611146920000     1.007825032230
         H           -7.048083280000   -21.304894340000    26.072949270000     1.007825032230
         H           -4.379254060000   -23.856857300000    22.551656740000     1.007825032230
         H           -0.385760660000   -21.685738180000    22.737499890000     1.007825032230
         C           -3.958902630000   -22.465266760000    23.875725190000    12.000000000000
         C           -5.355998510000   -21.125295900000    25.598230100000    12.000000000000
         C           -3.720713800000   -19.296246390000    26.531925540000    12.000000000000

  Charge       = 0
  Multiplicity = 1
  Basis Set: AUG-CC-PVDZ
    Blend: AUG-CC-PVDZ
  Basis Set: (AUG-CC-PVDZ AUX)
    Blend: AUG-CC-PVDZ-JKFIT

    Orbital Energies [Eh]
    ---------------------

    Doubly Occupied:

       1A    -15.636223     2A    -15.592313     3A    -11.279894
       4A    -11.237784     5A    -11.209891     6A     -1.386922
       7A     -1.121901     8A     -1.066898     9A     -0.872768
      10A     -0.837061    11A     -0.757292    12A     -0.645746
      13A     -0.620834    14A     -0.609140    15A     -0.583920
      16A     -0.461404    17A     -0.370721    18A     -0.346048

  @DF-RHF Final Energy:  -224.76233952437602

   => Energetics <=

    Nuclear Repulsion Energy =            166.6240563223170739
    One-Electron Energy =                -633.4992731425251122
    Two-Electron Energy =                 242.1128772958320212
    Total Energy =                       -224.7623395243760172

  Dipole Moment: [D]
     X:    -1.0235      Y:    -1.6055      Z:    -1.4733     Total:     2.4075

    SAPT Results
  --------------------------------------------------------------------------------------------------------
    Electrostatics                 -0.03044274 [mEh]      -0.01910311 [kcal/mol]      -0.07992741 [kJ/mol]
      Elst10,r                     -0.03044274 [mEh]      -0.01910311 [kcal/mol]      -0.07992741 [kJ/mol]

    Exchange                        0.00000000 [mEh]       0.00000000 [kcal/mol]       0.00000000 [kJ/mol]
      Exch10                        0.00000000 [mEh]       0.00000000 [kcal/mol]       0.00000000 [kJ/mol]
      Exch10(S^2)                   0.00000000 [mEh]       0.00000000 [kcal/mol]       0.00000000 [kJ/mol]

    Induction                       0.00000238 [mEh]       0.00000149 [kcal/mol]       0.00000624 [kJ/mol]
      Ind20,r                      -0.00005882 [mEh]      -0.00003691 [kcal/mol]      -0.00015444 [kJ/mol]
      Exch-Ind20,r                  0.00000000 [mEh]       0.00000000 [kcal/mol]       0.00000000 [kJ/mol]
      delta HF,r (2)                0.00006120 [mEh]       0.00003840 [kcal/mol]       0.00016068 [kJ/mol]

    Dispersion                     -0.00103957 [mEh]      -0.00065234 [kcal/mol]      -0.00272939 [kJ/mol]
      Disp20                       -0.00103957 [mEh]      -0.00065234 [kcal/mol]      -0.00272939 [kJ/mol]
      Exch-Disp20                   0.00000000 [mEh]       0.00000000 [kcal/mol]       0.00000000 [kJ/mol]
      Disp20 (SS)                  -0.00051978 [mEh]      -0.00032617 [kcal/mol]      -0.00136469 [kJ/mol]
      Disp20 (OS)                  -0.00051978 [mEh]      -0.00032617 [kcal/mol]      -0.00136469 [kJ/mol]
      Exch-Disp20 (SS)              0.00000000 [mEh]       0.00000000 [kcal/mol]       0.00000000 [kJ/mol]
      Exch-Disp20 (OS)              0.00000000 [mEh]       0.00000000 [kcal/mol]       0.00000000 [kJ/mol]

  Total HF                         -0.03044037 [mEh]      -0.01910162 [kcal/mol]      -0.07992118 [kJ/mol]
  Total SAPT0                      -0.03147994 [mEh]      -0.01975396 [kcal/mol]      -0.08265056 [kJ/mol]

  Special recipe for scaled SAPT0 (see Manual):
    Electrostatics sSAPT0          -0.03044274 [mEh]      -0.01910311 [kcal/mol]      -0.07992741 [kJ/mol]
    Exchange sSAPT0                 0.00000000 [mEh]       0.00000000 [kcal/mol]       0.00000000 [kJ/mol]
    Induction sSAPT0                0.00000238 [mEh]       0.00000149 [kcal/mol]       0.00000624 [kJ/mol]
    Dispersion sSAPT0              -0.00103957 [mEh]      -0.00065234 [kcal/mol]      -0.00272939 [kJ/mol]
  Total sSAPT0                     -0.03147994 [mEh]      -0.01975396 [kcal/mol]      -0.08265056 [kJ/mol]
  --------------------------------------------------------------------------------------------------------

*** Psi4 exiting successfully. Buy a developer a beer!
