                               Psi4 1.4rc3

  ==> Input File <==

--------------------------------------------------------------------------
# PSI4 file produced by CrystaLattE

# Generated from:               pyrazole.xyz
# Psithon input for N-mer:      2mer-0+5
# Number of atoms per monomer:  [9, 9]
# Number of replicas:           1
# COM priority:                 1.077071454136e-03
# Minimum COM separations:      5.162
# Separation priority:          6.640356073391e-03
# Minimum monomer separations:  2.815
# Cutoff priority:              1.248116594197e-03
# Nuclear repulsion energy:     467.124369472351

memory 7 GB

molecule Dimer_0_5 {
  N            6.27981210      -4.25303372       0.19313865
  N            6.06870777      -2.28125697       1.80544317
  H            3.66871156      -5.64628941      -1.96684001
  H            0.69034521      -2.37545694      -0.42864236
  H            3.35917442       0.17650601       3.09265017
  H            7.35266782      -1.99461311       2.90680702
  C            3.77952586      -1.21508453       1.76858172
  C            2.38242998      -2.55505538       0.04607681
  C            4.01771468      -4.38410490      -0.88761863
--
  N           -4.94029013      -9.49302627      -1.54178140
  N           -4.82142787      -7.45511923      -0.00460768
  H           -2.26712739     -11.89393623      -2.25981175
  H            0.62750917      -9.45139749       0.49532575
  H           -2.30891491      -5.73834848       2.39996206
  H           -6.28383608      -6.64514217       0.38115765
  C           -2.53859146      -7.12494356       1.02444117
  C           -1.05559903      -9.05461578       0.13451870
  C           -2.61690436     -10.43978359      -1.45717925
units = au
no_com
no_reorient
}

set {
  e_convergence 10
  d_convergence 10
  scf_type df
  mp2_type df
  cc_type df
  freeze_core true
}

energy('sapt0/aug-cc-pvdz')

--------------------------------------------------------------------------

  //              Dimer HF             //
    Molecular point group: c1
  Charge       = 0
  Multiplicity = 1
  Basis Set: AUG-CC-PVDZ
    Blend: AUG-CC-PVDZ
  Basis Set: (AUG-CC-PVDZ AUX)
    Blend: AUG-CC-PVDZ-JKFIT
  @DF-RHF Final Energy:  -449.52457900045761
    Total Energy =                       -449.5245790004576065
  //            Monomer A HF           //
    Molecular point group: c1
  Multiplicity = 1
  Basis Set: AUG-CC-PVDZ
    Blend: AUG-CC-PVDZ
  Basis Set: (AUG-CC-PVDZ AUX)
    Blend: AUG-CC-PVDZ-JKFIT
  @DF-RHF Final Energy:  -224.76277868811937
    Total Energy =                       -224.7627786881193686
  //            Monomer B HF           //
    Molecular point group: c1

    Geometry (in Bohr), charge = 0, multiplicity = 1:

       Center              X                  Y                   Z               Mass
    ------------   -----------------  -----------------  -----------------  -----------------
      Gh(N)           6.279812100000    -4.253033720000     0.193138650000    14.003074004430
      Gh(N)           6.068707770000    -2.281256970000     1.805443170000    14.003074004430
      Gh(H)           3.668711560000    -5.646289410000    -1.966840010000     1.007825032230
      Gh(H)           0.690345210000    -2.375456940000    -0.428642360000     1.007825032230
      Gh(H)           3.359174420000     0.176506010000     3.092650170000     1.007825032230
      Gh(H)           7.352667820000    -1.994613110000     2.906807020000     1.007825032230
      Gh(C)           3.779525860000    -1.215084530000     1.768581720000    12.000000000000
      Gh(C)           2.382429980000    -2.555055380000     0.046076810000    12.000000000000
      Gh(C)           4.017714680000    -4.384104900000    -0.887618630000    12.000000000000
         N           -4.940290130000    -9.493026270000    -1.541781400000    14.003074004430
         N           -4.821427870000    -7.455119230000    -0.004607680000    14.003074004430
         H           -2.267127390000   -11.893936230000    -2.259811750000     1.007825032230
         H            0.627509170000    -9.451397490000     0.495325750000     1.007825032230
         H           -2.308914910000    -5.738348480000     2.399962060000     1.007825032230
         H           -6.283836080000    -6.645142170000     0.381157650000     1.007825032230
         C           -2.538591460000    -7.124943560000     1.024441170000    12.000000000000
         C           -1.055599030000    -9.054615780000     0.134518700000    12.000000000000
         C           -2.616904360000   -10.439783590000    -1.457179250000    12.000000000000

  Charge       = 0
  Multiplicity = 1
  Basis Set: AUG-CC-PVDZ
    Blend: AUG-CC-PVDZ
  Basis Set: (AUG-CC-PVDZ AUX)
    Blend: AUG-CC-PVDZ-JKFIT

    Orbital Energies [Eh]
    ---------------------

    Doubly Occupied:

       1A    -15.636286     2A    -15.592289     3A    -11.279845
       4A    -11.237709     5A    -11.209789     6A     -1.386966
       7A     -1.121862     8A     -1.066878     9A     -0.872733
      10A     -0.836999    11A     -0.757236    12A     -0.645713
      13A     -0.620789    14A     -0.609183    15A     -0.583851
      16A     -0.461396    17A     -0.370707    18A     -0.346032

  @DF-RHF Final Energy:  -224.76289248427179

   => Energetics <=

    Nuclear Repulsion Energy =            166.6286026903198376
    One-Electron Energy =                -633.5104628539709211
    Two-Electron Energy =                 242.1189676793792955
    Total Energy =                       -224.7628924842717879

  Dipole Moment: [D]
     X:     0.7392      Y:     1.4325      Z:     1.7851     Total:     2.4052

    SAPT Results
  --------------------------------------------------------------------------------------------------------
    Electrostatics                 -1.98201137 [mEh]      -1.24373091 [kcal/mol]      -5.20377014 [kJ/mol]
      Elst10,r                     -1.98201137 [mEh]      -1.24373091 [kcal/mol]      -5.20377014 [kJ/mol]

    Exchange                        3.42289371 [mEh]       2.14789823 [kcal/mol]       8.98680621 [kJ/mol]
      Exch10                        3.42289371 [mEh]       2.14789823 [kcal/mol]       8.98680621 [kJ/mol]
      Exch10(S^2)                   3.41471718 [mEh]       2.14276738 [kcal/mol]       8.96533873 [kJ/mol]

    Induction                      -0.34871041 [mEh]      -0.21881908 [kcal/mol]      -0.91553905 [kJ/mol]
      Ind20,r                      -1.40636288 [mEh]      -0.88250603 [kcal/mol]      -3.69240524 [kJ/mol]
      Exch-Ind20,r                  1.34525915 [mEh]       0.84416286 [kcal/mol]       3.53197742 [kJ/mol]
      delta HF,r (2)               -0.28760668 [mEh]      -0.18047591 [kcal/mol]      -0.75511123 [kJ/mol]

    Dispersion                     -3.81990005 [mEh]      -2.39702347 [kcal/mol]     -10.02914619 [kJ/mol]
      Disp20                       -4.26936601 [mEh]      -2.67906762 [kcal/mol]     -11.20921892 [kJ/mol]
      Exch-Disp20                   0.44946596 [mEh]       0.28204415 [kcal/mol]       1.18007273 [kJ/mol]
      Disp20 (SS)                  -2.13468301 [mEh]      -1.33953381 [kcal/mol]      -5.60460946 [kJ/mol]
      Disp20 (OS)                  -2.13468301 [mEh]      -1.33953381 [kcal/mol]      -5.60460946 [kJ/mol]
      Exch-Disp20 (SS)              0.28768083 [mEh]       0.18052245 [kcal/mol]       0.75530592 [kJ/mol]
      Exch-Disp20 (OS)              0.16178513 [mEh]       0.10152170 [kcal/mol]       0.42476680 [kJ/mol]

  Total HF                          1.09217193 [mEh]       0.68534824 [kcal/mol]       2.86749702 [kJ/mol]
  Total SAPT0                      -2.72772811 [mEh]      -1.71167523 [kcal/mol]      -7.16164917 [kJ/mol]

  Special recipe for scaled SAPT0 (see Manual):
    Electrostatics sSAPT0          -1.98201137 [mEh]      -1.24373091 [kcal/mol]      -5.20377014 [kJ/mol]
    Exchange sSAPT0                 3.42289371 [mEh]       2.14789823 [kcal/mol]       8.98680621 [kJ/mol]
    Induction sSAPT0               -0.33902359 [mEh]      -0.21274052 [kcal/mol]      -0.89010632 [kJ/mol]
    Dispersion sSAPT0              -3.81666357 [mEh]      -2.39499255 [kcal/mol]     -10.02064883 [kJ/mol]
  Total sSAPT0                     -2.71480482 [mEh]      -1.70356575 [kcal/mol]      -7.12771909 [kJ/mol]
  --------------------------------------------------------------------------------------------------------

*** Psi4 exiting successfully. Buy a developer a beer!
