                               Psi4 1.4rc3

  ==> Input File <==

--------------------------------------------------------------------------
# PSI4 file produced by CrystaLattE

# Generated from:               pyrazole.xyz
# Psithon input for N-mer:      2mer-0+126
# Number of atoms per monomer:  [9, 9]
# Number of replicas:           1
# COM priority:                 2.962092649977e-05
# Minimum COM separations:      17.103
# Separation priority:          6.698320591225e-05
# Minimum monomer separations:  13.030
# Cutoff priority:              2.720327798692e-06
# Nuclear repulsion energy:     373.53780606667806

memory 7 GB

molecule Dimer_0_126 {
  N            6.27981210      -4.25303372       0.19313865
  N            6.06870777      -2.28125697       1.80544317
  H            3.66871156      -5.64628941      -1.96684001
  H            0.69034521      -2.37545694      -0.42864236
  H            3.35917442       0.17650601       3.09265017
  H            7.35266782      -1.99461311       2.90680702
  C            3.77952586      -1.21508453       1.76858172
  C            2.38242998      -2.55505538       0.04607681
  C            4.01771468      -4.38410490      -0.88761863
--
  N          -28.15557558       2.40090997      -4.81169931
  N          -28.03671332       4.43881700      -6.34887303
  H          -25.48241284       0.00000000      -4.09366896
  H          -22.58777629       2.44253874      -6.84880646
  H          -25.52420036       6.15558776      -8.75344277
  H          -29.49912153       5.24879406      -6.73463836
  C          -25.75387692       4.76899267      -7.37792188
  C          -24.27088448       2.83932046      -6.48799941
  C          -25.83218981       1.45415264      -4.89630146
units = au
no_com
no_reorient
}

set {
  e_convergence 10
  d_convergence 10
  scf_type df
  mp2_type df
  cc_type df
  freeze_core true
}

energy('sapt0/aug-cc-pvdz')

--------------------------------------------------------------------------

  //              Dimer HF             //
    Molecular point group: c1
  Charge       = 0
  Multiplicity = 1
  Basis Set: AUG-CC-PVDZ
    Blend: AUG-CC-PVDZ
  Basis Set: (AUG-CC-PVDZ AUX)
    Blend: AUG-CC-PVDZ-JKFIT
  @DF-RHF Final Energy:  -449.52477717420078
    Total Energy =                       -449.5247771742007217
  //            Monomer A HF           //
    Molecular point group: c1
  Multiplicity = 1
  Basis Set: AUG-CC-PVDZ
    Blend: AUG-CC-PVDZ
  Basis Set: (AUG-CC-PVDZ AUX)
    Blend: AUG-CC-PVDZ-JKFIT
  @DF-RHF Final Energy:  -224.76233952431753
    Total Energy =                       -224.7623395243175253
  //            Monomer B HF           //
    Molecular point group: c1

    Geometry (in Bohr), charge = 0, multiplicity = 1:

       Center              X                  Y                   Z               Mass
    ------------   -----------------  -----------------  -----------------  -----------------
      Gh(N)           6.279812100000    -4.253033720000     0.193138650000    14.003074004430
      Gh(N)           6.068707770000    -2.281256970000     1.805443170000    14.003074004430
      Gh(H)           3.668711560000    -5.646289410000    -1.966840010000     1.007825032230
      Gh(H)           0.690345210000    -2.375456940000    -0.428642360000     1.007825032230
      Gh(H)           3.359174420000     0.176506010000     3.092650170000     1.007825032230
      Gh(H)           7.352667820000    -1.994613110000     2.906807020000     1.007825032230
      Gh(C)           3.779525860000    -1.215084530000     1.768581720000    12.000000000000
      Gh(C)           2.382429980000    -2.555055380000     0.046076810000    12.000000000000
      Gh(C)           4.017714680000    -4.384104900000    -0.887618630000    12.000000000000
         N          -28.155575580000     2.400909970000    -4.811699310000    14.003074004430
         N          -28.036713320000     4.438817000000    -6.348873030000    14.003074004430
         H          -25.482412840000     0.000000000000    -4.093668960000     1.007825032230
         H          -22.587776290000     2.442538740000    -6.848806460000     1.007825032230
         H          -25.524200360000     6.155587760000    -8.753442770000     1.007825032230
         H          -29.499121530000     5.248794060000    -6.734638360000     1.007825032230
         C          -25.753876920000     4.768992670000    -7.377921880000    12.000000000000
         C          -24.270884480000     2.839320460000    -6.487999410000    12.000000000000
         C          -25.832189810000     1.454152640000    -4.896301460000    12.000000000000

  Charge       = 0
  Multiplicity = 1
  Basis Set: AUG-CC-PVDZ
    Blend: AUG-CC-PVDZ
  Basis Set: (AUG-CC-PVDZ AUX)
    Blend: AUG-CC-PVDZ-JKFIT

    Orbital Energies [Eh]
    ---------------------

    Doubly Occupied:

       1A    -15.636233     2A    -15.592291     3A    -11.279903
       4A    -11.237759     5A    -11.209884     6A     -1.387001
       7A     -1.121894     8A     -1.066928     9A     -0.872759
      10A     -0.837039    11A     -0.757272    12A     -0.645745
      13A     -0.620828    14A     -0.609177    15A     -0.583905
      16A     -0.461413    17A     -0.370715    18A     -0.346055

  @DF-RHF Final Energy:  -224.76243506487972

   => Energetics <=

    Nuclear Repulsion Energy =            166.6286028102341845
    One-Electron Energy =                -633.5084734842703256
    Two-Electron Energy =                 242.1174356091564448
    Total Energy =                       -224.7624350648797247

  Dipole Moment: [D]
     X:     0.7394      Y:     1.4336      Z:    -1.7871     Total:     2.4074

    SAPT Results
  --------------------------------------------------------------------------------------------------------
    Electrostatics                 -0.00266644 [mEh]      -0.00167321 [kcal/mol]      -0.00700073 [kJ/mol]
      Elst10,r                     -0.00266644 [mEh]      -0.00167321 [kcal/mol]      -0.00700073 [kJ/mol]

    Exchange                        0.00000002 [mEh]       0.00000001 [kcal/mol]       0.00000005 [kJ/mol]
      Exch10                        0.00000002 [mEh]       0.00000001 [kcal/mol]       0.00000005 [kJ/mol]
      Exch10(S^2)                   0.00000002 [mEh]       0.00000001 [kcal/mol]       0.00000005 [kJ/mol]

    Induction                       0.00008142 [mEh]       0.00005109 [kcal/mol]       0.00021376 [kJ/mol]
      Ind20,r                      -0.00002923 [mEh]      -0.00001834 [kcal/mol]      -0.00007675 [kJ/mol]
      Exch-Ind20,r                  0.00000002 [mEh]       0.00000002 [kcal/mol]       0.00000006 [kJ/mol]
      delta HF,r (2)                0.00011063 [mEh]       0.00006942 [kcal/mol]       0.00029045 [kJ/mol]

    Dispersion                     -0.00124216 [mEh]      -0.00077947 [kcal/mol]      -0.00326129 [kJ/mol]
      Disp20                       -0.00124216 [mEh]      -0.00077947 [kcal/mol]      -0.00326129 [kJ/mol]
      Exch-Disp20                   0.00000000 [mEh]       0.00000000 [kcal/mol]       0.00000000 [kJ/mol]
      Disp20 (SS)                  -0.00062108 [mEh]      -0.00038973 [kcal/mol]      -0.00163064 [kJ/mol]
      Disp20 (OS)                  -0.00062108 [mEh]      -0.00038973 [kcal/mol]      -0.00163064 [kJ/mol]
      Exch-Disp20 (SS)              0.00000000 [mEh]       0.00000000 [kcal/mol]       0.00000000 [kJ/mol]
      Exch-Disp20 (OS)              0.00000000 [mEh]       0.00000000 [kcal/mol]       0.00000000 [kJ/mol]

  Total HF                         -0.00258500 [mEh]      -0.00162211 [kcal/mol]      -0.00678693 [kJ/mol]
  Total SAPT0                      -0.00382716 [mEh]      -0.00240158 [kcal/mol]      -0.01004821 [kJ/mol]

  Special recipe for scaled SAPT0 (see Manual):
    Electrostatics sSAPT0          -0.00266644 [mEh]      -0.00167321 [kcal/mol]      -0.00700073 [kJ/mol]
    Exchange sSAPT0                 0.00000002 [mEh]       0.00000001 [kcal/mol]       0.00000005 [kJ/mol]
    Induction sSAPT0                0.00008142 [mEh]       0.00005109 [kcal/mol]       0.00021376 [kJ/mol]
    Dispersion sSAPT0              -0.00124216 [mEh]      -0.00077947 [kcal/mol]      -0.00326129 [kJ/mol]
  Total sSAPT0                     -0.00382716 [mEh]      -0.00240158 [kcal/mol]      -0.01004821 [kJ/mol]
  --------------------------------------------------------------------------------------------------------

*** Psi4 exiting successfully. Buy a developer a beer!
