                               Psi4 1.4rc3

  ==> Input File <==

--------------------------------------------------------------------------
# PSI4 file produced by CrystaLattE

# Generated from:               pyrazole.xyz
# Psithon input for N-mer:      2mer-0+502
# Number of atoms per monomer:  [9, 9]
# Number of replicas:           2
# COM priority:                 1.409372784654e-05
# Minimum COM separations:      21.907
# Separation priority:          1.960527755150e-05
# Minimum monomer separations:  19.625
# Cutoff priority:              5.286448348928e-07
# Nuclear repulsion energy:     364.50950179446977

memory 7 GB

molecule Dimer_0_502 {
  N            6.27981210      -4.25303372       0.19313865
  N            6.06870777      -2.28125697       1.80544317
  H            3.66871156      -5.64628941      -1.96684001
  H            0.69034521      -2.37545694      -0.42864236
  H            3.35917442       0.17650601       3.09265017
  H            7.35266782      -1.99461311       2.90680702
  C            3.77952586      -1.21508453       1.76858172
  C            2.38242998      -2.55505538       0.04607681
  C            4.01771468      -4.38410490      -0.88761863
--
  N           -9.19704487      -4.25303372      38.59048379
  N           -9.40814920      -2.28125697      40.20278831
  H          -11.80814541      -5.64628941      36.43050513
  H          -14.78651176      -2.37545694      37.96870278
  H          -12.11768255       0.17650601      41.48999531
  H           -8.12418914      -1.99461311      41.30415216
  C          -11.69733111      -1.21508453      40.16592686
  C          -13.09442699      -2.55505538      38.44342196
  C          -11.45914228      -4.38410490      37.50972651
units = au
no_com
no_reorient
}

set {
  e_convergence 10
  d_convergence 10
  scf_type df
  mp2_type df
  cc_type df
  freeze_core true
}

energy('sapt0/aug-cc-pvdz')

--------------------------------------------------------------------------

  //              Dimer HF             //
    Molecular point group: c1
  Charge       = 0
  Multiplicity = 1
  Basis Set: AUG-CC-PVDZ
    Blend: AUG-CC-PVDZ
  Basis Set: (AUG-CC-PVDZ AUX)
    Blend: AUG-CC-PVDZ-JKFIT
  @DF-RHF Final Energy:  -449.52468648108419
    Total Energy =                       -449.5246864810842453
  //            Monomer A HF           //
    Molecular point group: c1
  Multiplicity = 1
  Basis Set: AUG-CC-PVDZ
    Blend: AUG-CC-PVDZ
  Basis Set: (AUG-CC-PVDZ AUX)
    Blend: AUG-CC-PVDZ-JKFIT
  @DF-RHF Final Energy:  -224.76233952007186
    Total Energy =                       -224.7623395200718619
  //            Monomer B HF           //
    Molecular point group: c1

    Geometry (in Bohr), charge = 0, multiplicity = 1:

       Center              X                  Y                   Z               Mass
    ------------   -----------------  -----------------  -----------------  -----------------
      Gh(N)           6.279812100000    -4.253033720000     0.193138650000    14.003074004430
      Gh(N)           6.068707770000    -2.281256970000     1.805443170000    14.003074004430
      Gh(H)           3.668711560000    -5.646289410000    -1.966840010000     1.007825032230
      Gh(H)           0.690345210000    -2.375456940000    -0.428642360000     1.007825032230
      Gh(H)           3.359174420000     0.176506010000     3.092650170000     1.007825032230
      Gh(H)           7.352667820000    -1.994613110000     2.906807020000     1.007825032230
      Gh(C)           3.779525860000    -1.215084530000     1.768581720000    12.000000000000
      Gh(C)           2.382429980000    -2.555055380000     0.046076810000    12.000000000000
      Gh(C)           4.017714680000    -4.384104900000    -0.887618630000    12.000000000000
         N           -9.197044870000    -4.253033720000    38.590483790000    14.003074004430
         N           -9.408149200000    -2.281256970000    40.202788310000    14.003074004430
         H          -11.808145410000    -5.646289410000    36.430505130000     1.007825032230
         H          -14.786511760000    -2.375456940000    37.968702780000     1.007825032230
         H          -12.117682550000     0.176506010000    41.489995310000     1.007825032230
         H           -8.124189140000    -1.994613110000    41.304152160000     1.007825032230
         C          -11.697331110000    -1.215084530000    40.165926860000    12.000000000000
         C          -13.094426990000    -2.555055380000    38.443421960000    12.000000000000
         C          -11.459142280000    -4.384104900000    37.509726510000    12.000000000000

  Charge       = 0
  Multiplicity = 1
  Basis Set: AUG-CC-PVDZ
    Blend: AUG-CC-PVDZ
  Basis Set: (AUG-CC-PVDZ AUX)
    Blend: AUG-CC-PVDZ-JKFIT

    Orbital Energies [Eh]
    ---------------------

    Doubly Occupied:

       1A    -15.636223     2A    -15.592313     3A    -11.279894
       4A    -11.237784     5A    -11.209891     6A     -1.386922
       7A     -1.121901     8A     -1.066898     9A     -0.872768
      10A     -0.837061    11A     -0.757292    12A     -0.645746
      13A     -0.620834    14A     -0.609140    15A     -0.583920
      16A     -0.461404    17A     -0.370721    18A     -0.346048

  @DF-RHF Final Energy:  -224.76233952339641

   => Energetics <=

    Nuclear Repulsion Energy =            166.6240564818921541
    One-Electron Energy =                -633.4992734622242097
    Two-Electron Energy =                 242.1128774569356779
    Total Energy =                       -224.7623395233964061

  Dipole Moment: [D]
     X:    -1.0235      Y:     1.6055      Z:     1.4733     Total:     2.4075

    SAPT Results
  --------------------------------------------------------------------------------------------------------
    Electrostatics                 -0.00748224 [mEh]      -0.00469517 [kcal/mol]      -0.01964461 [kJ/mol]
      Elst10,r                     -0.00748224 [mEh]      -0.00469517 [kcal/mol]      -0.01964461 [kJ/mol]

    Exchange                        0.00000000 [mEh]       0.00000000 [kcal/mol]       0.00000000 [kJ/mol]
      Exch10                        0.00000000 [mEh]       0.00000000 [kcal/mol]       0.00000000 [kJ/mol]
      Exch10(S^2)                   0.00000000 [mEh]       0.00000000 [kcal/mol]       0.00000000 [kJ/mol]

    Induction                       0.00004462 [mEh]       0.00002800 [kcal/mol]       0.00011715 [kJ/mol]
      Ind20,r                      -0.00001578 [mEh]      -0.00000990 [kcal/mol]      -0.00004144 [kJ/mol]
      Exch-Ind20,r                  0.00000000 [mEh]       0.00000000 [kcal/mol]       0.00000000 [kJ/mol]
      delta HF,r (2)                0.00006040 [mEh]       0.00003790 [kcal/mol]       0.00015859 [kJ/mol]

    Dispersion                     -0.00020843 [mEh]      -0.00013079 [kcal/mol]      -0.00054722 [kJ/mol]
      Disp20                       -0.00020843 [mEh]      -0.00013079 [kcal/mol]      -0.00054722 [kJ/mol]
      Exch-Disp20                   0.00000000 [mEh]       0.00000000 [kcal/mol]       0.00000000 [kJ/mol]
      Disp20 (SS)                  -0.00010421 [mEh]      -0.00006539 [kcal/mol]      -0.00027361 [kJ/mol]
      Disp20 (OS)                  -0.00010421 [mEh]      -0.00006539 [kcal/mol]      -0.00027361 [kJ/mol]
      Exch-Disp20 (SS)              0.00000000 [mEh]       0.00000000 [kcal/mol]       0.00000000 [kJ/mol]
      Exch-Disp20 (OS)              0.00000000 [mEh]       0.00000000 [kcal/mol]       0.00000000 [kJ/mol]

  Total HF                         -0.00743762 [mEh]      -0.00466717 [kcal/mol]      -0.01952746 [kJ/mol]
  Total SAPT0                      -0.00764604 [mEh]      -0.00479796 [kcal/mol]      -0.02007468 [kJ/mol]

  Special recipe for scaled SAPT0 (see Manual):
    Electrostatics sSAPT0          -0.00748224 [mEh]      -0.00469517 [kcal/mol]      -0.01964461 [kJ/mol]
    Exchange sSAPT0                 0.00000000 [mEh]       0.00000000 [kcal/mol]       0.00000000 [kJ/mol]
    Induction sSAPT0                0.00004462 [mEh]       0.00002800 [kcal/mol]       0.00011715 [kJ/mol]
    Dispersion sSAPT0              -0.00020843 [mEh]      -0.00013079 [kcal/mol]      -0.00054722 [kJ/mol]
  Total sSAPT0                     -0.00764604 [mEh]      -0.00479796 [kcal/mol]      -0.02007468 [kJ/mol]
  --------------------------------------------------------------------------------------------------------

*** Psi4 exiting successfully. Buy a developer a beer!
