                               Psi4 1.4rc3

  ==> Input File <==

--------------------------------------------------------------------------
# PSI4 file produced by CrystaLattE

# Generated from:               pyrazole.xyz
# Psithon input for N-mer:      2mer-0+14
# Number of atoms per monomer:  [9, 9]
# Number of replicas:           2
# COM priority:                 2.871275594498e-04
# Minimum COM separations:      8.021
# Separation priority:          1.926126658956e-03
# Minimum monomer separations:  4.253
# Cutoff priority:              2.396513002481e-04
# Nuclear repulsion energy:     419.7680437113121

memory 7 GB

molecule Dimer_0_14 {
  N            6.27981210      -4.25303372       0.19313865
  N            6.06870777      -2.28125697       1.80544317
  H            3.66871156      -5.64628941      -1.96684001
  H            0.69034521      -2.37545694      -0.42864236
  H            3.35917442       0.17650601       3.09265017
  H            7.35266782      -1.99461311       2.90680702
  C            3.77952586      -1.21508453       1.76858172
  C            2.38242998      -2.55505538       0.04607681
  C            4.01771468      -4.38410490      -0.88761863
--
  N           -1.45861638       4.36055490      12.65205322
  N           -1.66972071       2.38877815      11.03974869
  H           -4.06971692       5.75381059      14.81203187
  H           -7.04808328       2.48297813      13.27383422
  H           -4.37925406      -0.06898483       9.75254169
  H           -0.38576066       2.10213429       9.93838484
  C           -3.95890263       1.32260571      11.07661014
  C           -5.35599851       2.66257657      12.79911505
  C           -3.72071380       4.49162608      13.73281049
units = au
no_com
no_reorient
}

set {
  e_convergence 10
  d_convergence 10
  scf_type df
  mp2_type df
  cc_type df
  freeze_core true
}

energy('sapt0/aug-cc-pvdz')

--------------------------------------------------------------------------

  //              Dimer HF             //
    Molecular point group: c1
  Charge       = 0
  Multiplicity = 1
  Basis Set: AUG-CC-PVDZ
    Blend: AUG-CC-PVDZ
  Basis Set: (AUG-CC-PVDZ AUX)
    Blend: AUG-CC-PVDZ-JKFIT
  @DF-RHF Final Energy:  -449.52430910475590
    Total Energy =                       -449.5243091047559574
  //            Monomer A HF           //
    Molecular point group: c1
  Multiplicity = 1
  Basis Set: AUG-CC-PVDZ
    Blend: AUG-CC-PVDZ
  Basis Set: (AUG-CC-PVDZ AUX)
    Blend: AUG-CC-PVDZ-JKFIT
  @DF-RHF Final Energy:  -224.76238354021174
    Total Energy =                       -224.7623835402117436
  //            Monomer B HF           //
    Molecular point group: c1

    Geometry (in Bohr), charge = 0, multiplicity = 1:

       Center              X                  Y                   Z               Mass
    ------------   -----------------  -----------------  -----------------  -----------------
      Gh(N)           6.279812100000    -4.253033720000     0.193138650000    14.003074004430
      Gh(N)           6.068707770000    -2.281256970000     1.805443170000    14.003074004430
      Gh(H)           3.668711560000    -5.646289410000    -1.966840010000     1.007825032230
      Gh(H)           0.690345210000    -2.375456940000    -0.428642360000     1.007825032230
      Gh(H)           3.359174420000     0.176506010000     3.092650170000     1.007825032230
      Gh(H)           7.352667820000    -1.994613110000     2.906807020000     1.007825032230
      Gh(C)           3.779525860000    -1.215084530000     1.768581720000    12.000000000000
      Gh(C)           2.382429980000    -2.555055380000     0.046076810000    12.000000000000
      Gh(C)           4.017714680000    -4.384104900000    -0.887618630000    12.000000000000
         N           -1.458616380000     4.360554900000    12.652053220000    14.003074004430
         N           -1.669720710000     2.388778150000    11.039748690000    14.003074004430
         H           -4.069716920000     5.753810590000    14.812031870000     1.007825032230
         H           -7.048083280000     2.482978130000    13.273834220000     1.007825032230
         H           -4.379254060000    -0.068984830000     9.752541690000     1.007825032230
         H           -0.385760660000     2.102134290000     9.938384840000     1.007825032230
         C           -3.958902630000     1.322605710000    11.076610140000    12.000000000000
         C           -5.355998510000     2.662576570000    12.799115050000    12.000000000000
         C           -3.720713800000     4.491626080000    13.732810490000    12.000000000000

  Charge       = 0
  Multiplicity = 1
  Basis Set: AUG-CC-PVDZ
    Blend: AUG-CC-PVDZ
  Basis Set: (AUG-CC-PVDZ AUX)
    Blend: AUG-CC-PVDZ-JKFIT

    Orbital Energies [Eh]
    ---------------------

    Doubly Occupied:

       1A    -15.636226     2A    -15.592324     3A    -11.279881
       4A    -11.237784     5A    -11.209882     6A     -1.386921
       7A     -1.121902     8A     -1.066897     9A     -0.872769
      10A     -0.837062    11A     -0.757295    12A     -0.645746
      13A     -0.620833    14A     -0.609138    15A     -0.583920
      16A     -0.461403    17A     -0.370720    18A     -0.346046

  @DF-RHF Final Energy:  -224.76237868304548

   => Energetics <=

    Nuclear Repulsion Energy =            166.6240562780619427
    One-Electron Energy =                -633.4993721489367999
    Two-Electron Energy =                 242.1129371878293455
    Total Energy =                       -224.7623786830454833

  Dipole Moment: [D]
     X:    -1.0231      Y:    -1.6056      Z:    -1.4736     Total:     2.4076

    SAPT Results
  --------------------------------------------------------------------------------------------------------
    Electrostatics                  0.47948414 [mEh]       0.30088084 [kcal/mol]       1.25888544 [kJ/mol]
      Elst10,r                      0.47948414 [mEh]       0.30088084 [kcal/mol]       1.25888544 [kJ/mol]

    Exchange                        0.00049612 [mEh]       0.00031132 [kcal/mol]       0.00130256 [kJ/mol]
      Exch10                        0.00049612 [mEh]       0.00031132 [kcal/mol]       0.00130256 [kJ/mol]
      Exch10(S^2)                   0.00049612 [mEh]       0.00031132 [kcal/mol]       0.00130256 [kJ/mol]

    Induction                      -0.02686176 [mEh]      -0.01685601 [kcal/mol]      -0.07052554 [kJ/mol]
      Ind20,r                      -0.02730329 [mEh]      -0.01713307 [kcal/mol]      -0.07168477 [kJ/mol]
      Exch-Ind20,r                  0.00019314 [mEh]       0.00012120 [kcal/mol]       0.00050710 [kJ/mol]
      delta HF,r (2)                0.00024838 [mEh]       0.00015586 [kcal/mol]       0.00065213 [kJ/mol]

    Dispersion                     -0.15778024 [mEh]      -0.09900859 [kcal/mol]      -0.41425195 [kJ/mol]
      Disp20                       -0.15786803 [mEh]      -0.09906368 [kcal/mol]      -0.41448245 [kJ/mol]
      Exch-Disp20                   0.00008779 [mEh]       0.00005509 [kcal/mol]       0.00023050 [kJ/mol]
      Disp20 (SS)                  -0.07893401 [mEh]      -0.04953184 [kcal/mol]      -0.20724122 [kJ/mol]
      Disp20 (OS)                  -0.07893401 [mEh]      -0.04953184 [kcal/mol]      -0.20724122 [kJ/mol]
      Exch-Disp20 (SS)              0.00006357 [mEh]       0.00003989 [kcal/mol]       0.00016689 [kJ/mol]
      Exch-Disp20 (OS)              0.00002423 [mEh]       0.00001520 [kcal/mol]       0.00006361 [kJ/mol]

  Total HF                          0.45311850 [mEh]       0.28433615 [kcal/mol]       1.18966246 [kJ/mol]
  Total SAPT0                       0.29533827 [mEh]       0.18532756 [kcal/mol]       0.77541051 [kJ/mol]

  Special recipe for scaled SAPT0 (see Manual):
    Electrostatics sSAPT0           0.47948414 [mEh]       0.30088084 [kcal/mol]       1.25888544 [kJ/mol]
    Exchange sSAPT0                 0.00049612 [mEh]       0.00031132 [kcal/mol]       0.00130256 [kJ/mol]
    Induction sSAPT0               -0.02686176 [mEh]      -0.01685601 [kcal/mol]      -0.07052554 [kJ/mol]
    Dispersion sSAPT0              -0.15778024 [mEh]      -0.09900859 [kcal/mol]      -0.41425195 [kJ/mol]
  Total sSAPT0                      0.29533827 [mEh]       0.18532756 [kcal/mol]       0.77541051 [kJ/mol]
  --------------------------------------------------------------------------------------------------------

*** Psi4 exiting successfully. Buy a developer a beer!
