                               Psi4 1.4rc3

  ==> Input File <==

--------------------------------------------------------------------------
# PSI4 file produced by CrystaLattE

# Generated from:               pyrazole.xyz
# Psithon input for N-mer:      2mer-0+392
# Number of atoms per monomer:  [9, 9]
# Number of replicas:           2
# COM priority:                 1.766429900014e-05
# Minimum COM separations:      20.319
# Separation priority:          2.579625423902e-05
# Minimum monomer separations:  17.909
# Cutoff priority:              7.622115603942e-07
# Nuclear repulsion energy:     366.96641294201413

memory 7 GB

molecule Dimer_0_392 {
  N            6.27981210      -4.25303372       0.19313865
  N            6.06870777      -2.28125697       1.80544317
  H            3.66871156      -5.64628941      -1.96684001
  H            0.69034521      -2.37545694      -0.42864236
  H            3.35917442       0.17650601       3.09265017
  H            7.35266782      -1.99461311       2.90680702
  C            3.77952586      -1.21508453       1.76858172
  C            2.38242998      -2.55505538       0.04607681
  C            4.01771468      -4.38410490      -0.88761863
--
  N            6.27981210      -4.25303372     -38.20420650
  N            6.06870777      -2.28125697     -36.59190197
  H            3.66871156      -5.64628941     -40.36418515
  H            0.69034521      -2.37545694     -38.82598751
  H            3.35917442       0.17650601     -35.30469497
  H            7.35266782      -1.99461311     -35.49053812
  C            3.77952586      -1.21508453     -36.62876343
  C            2.38242998      -2.55505538     -38.35126833
  C            4.01771468      -4.38410490     -39.28496377
units = au
no_com
no_reorient
}

set {
  e_convergence 10
  d_convergence 10
  scf_type df
  mp2_type df
  cc_type df
  freeze_core true
}

energy('sapt0/aug-cc-pvdz')

--------------------------------------------------------------------------

  //              Dimer HF             //
    Molecular point group: c1
  Charge       = 0
  Multiplicity = 1
  Basis Set: AUG-CC-PVDZ
    Blend: AUG-CC-PVDZ
  Basis Set: (AUG-CC-PVDZ AUX)
    Blend: AUG-CC-PVDZ-JKFIT
  @DF-RHF Final Energy:  -449.52468301249820
    Total Energy =                       -449.5246830124981443
  //            Monomer A HF           //
    Molecular point group: c1
  Multiplicity = 1
  Basis Set: AUG-CC-PVDZ
    Blend: AUG-CC-PVDZ
  Basis Set: (AUG-CC-PVDZ AUX)
    Blend: AUG-CC-PVDZ-JKFIT
  @DF-RHF Final Energy:  -224.76233952272332
    Total Energy =                       -224.7623395227233232
  //            Monomer B HF           //
    Molecular point group: c1

    Geometry (in Bohr), charge = 0, multiplicity = 1:

       Center              X                  Y                   Z               Mass
    ------------   -----------------  -----------------  -----------------  -----------------
      Gh(N)           6.279812100000    -4.253033720000     0.193138650000    14.003074004430
      Gh(N)           6.068707770000    -2.281256970000     1.805443170000    14.003074004430
      Gh(H)           3.668711560000    -5.646289410000    -1.966840010000     1.007825032230
      Gh(H)           0.690345210000    -2.375456940000    -0.428642360000     1.007825032230
      Gh(H)           3.359174420000     0.176506010000     3.092650170000     1.007825032230
      Gh(H)           7.352667820000    -1.994613110000     2.906807020000     1.007825032230
      Gh(C)           3.779525860000    -1.215084530000     1.768581720000    12.000000000000
      Gh(C)           2.382429980000    -2.555055380000     0.046076810000    12.000000000000
      Gh(C)           4.017714680000    -4.384104900000    -0.887618630000    12.000000000000
         N            6.279812100000    -4.253033720000   -38.204206500000    14.003074004430
         N            6.068707770000    -2.281256970000   -36.591901970000    14.003074004430
         H            3.668711560000    -5.646289410000   -40.364185150000     1.007825032230
         H            0.690345210000    -2.375456940000   -38.825987510000     1.007825032230
         H            3.359174420000     0.176506010000   -35.304694970000     1.007825032230
         H            7.352667820000    -1.994613110000   -35.490538120000     1.007825032230
         C            3.779525860000    -1.215084530000   -36.628763430000    12.000000000000
         C            2.382429980000    -2.555055380000   -38.351268330000    12.000000000000
         C            4.017714680000    -4.384104900000   -39.284963770000    12.000000000000

  Charge       = 0
  Multiplicity = 1
  Basis Set: AUG-CC-PVDZ
    Blend: AUG-CC-PVDZ
  Basis Set: (AUG-CC-PVDZ AUX)
    Blend: AUG-CC-PVDZ-JKFIT

    Orbital Energies [Eh]
    ---------------------

    Doubly Occupied:

       1A    -15.636223     2A    -15.592313     3A    -11.279894
       4A    -11.237784     5A    -11.209891     6A     -1.386922
       7A     -1.121901     8A     -1.066898     9A     -0.872768
      10A     -0.837061    11A     -0.757292    12A     -0.645746
      13A     -0.620834    14A     -0.609140    15A     -0.583920
      16A     -0.461404    17A     -0.370721    18A     -0.346048

  @DF-RHF Final Energy:  -224.76233952187113

   => Energetics <=

    Nuclear Repulsion Energy =            166.6240564628005529
    One-Electron Energy =                -633.4992734174144289
    Two-Electron Energy =                 242.1128774327427209
    Total Energy =                       -224.7623395218711266

  Dipole Moment: [D]
     X:    -1.0235      Y:     1.6055      Z:     1.4733     Total:     2.4075

    SAPT Results
  --------------------------------------------------------------------------------------------------------
    Electrostatics                 -0.00400145 [mEh]      -0.00251095 [kcal/mol]      -0.01050579 [kJ/mol]
      Elst10,r                     -0.00400145 [mEh]      -0.00251095 [kcal/mol]      -0.01050579 [kJ/mol]

    Exchange                        0.00000000 [mEh]       0.00000000 [kcal/mol]       0.00000000 [kJ/mol]
      Exch10                        0.00000000 [mEh]       0.00000000 [kcal/mol]       0.00000000 [kJ/mol]
      Exch10(S^2)                   0.00000000 [mEh]       0.00000000 [kcal/mol]       0.00000000 [kJ/mol]

    Induction                       0.00003354 [mEh]       0.00002105 [kcal/mol]       0.00008806 [kJ/mol]
      Ind20,r                      -0.00002357 [mEh]      -0.00001479 [kcal/mol]      -0.00006189 [kJ/mol]
      Exch-Ind20,r                  0.00000000 [mEh]       0.00000000 [kcal/mol]       0.00000000 [kJ/mol]
      delta HF,r (2)                0.00005712 [mEh]       0.00003584 [kcal/mol]       0.00014996 [kJ/mol]

    Dispersion                     -0.00034023 [mEh]      -0.00021350 [kcal/mol]      -0.00089329 [kJ/mol]
      Disp20                       -0.00034023 [mEh]      -0.00021350 [kcal/mol]      -0.00089329 [kJ/mol]
      Exch-Disp20                   0.00000000 [mEh]       0.00000000 [kcal/mol]       0.00000000 [kJ/mol]
      Disp20 (SS)                  -0.00017012 [mEh]      -0.00010675 [kcal/mol]      -0.00044664 [kJ/mol]
      Disp20 (OS)                  -0.00017012 [mEh]      -0.00010675 [kcal/mol]      -0.00044664 [kJ/mol]
      Exch-Disp20 (SS)              0.00000000 [mEh]       0.00000000 [kcal/mol]       0.00000000 [kJ/mol]
      Exch-Disp20 (OS)              0.00000000 [mEh]       0.00000000 [kcal/mol]       0.00000000 [kJ/mol]

  Total HF                         -0.00396790 [mEh]      -0.00248990 [kcal/mol]      -0.01041773 [kJ/mol]
  Total SAPT0                      -0.00430814 [mEh]      -0.00270340 [kcal/mol]      -0.01131102 [kJ/mol]

  Special recipe for scaled SAPT0 (see Manual):
    Electrostatics sSAPT0          -0.00400145 [mEh]      -0.00251095 [kcal/mol]      -0.01050579 [kJ/mol]
    Exchange sSAPT0                 0.00000000 [mEh]       0.00000000 [kcal/mol]       0.00000000 [kJ/mol]
    Induction sSAPT0                0.00003354 [mEh]       0.00002105 [kcal/mol]       0.00008806 [kJ/mol]
    Dispersion sSAPT0              -0.00034023 [mEh]      -0.00021350 [kcal/mol]      -0.00089329 [kJ/mol]
  Total sSAPT0                     -0.00430814 [mEh]      -0.00270340 [kcal/mol]      -0.01131102 [kJ/mol]
  --------------------------------------------------------------------------------------------------------

*** Psi4 exiting successfully. Buy a developer a beer!
