                               Psi4 1.4rc3

  ==> Input File <==

--------------------------------------------------------------------------
# PSI4 file produced by CrystaLattE

# Generated from:               pyrazole.xyz
# Psithon input for N-mer:      2mer-0+49
# Number of atoms per monomer:  [9, 9]
# Number of replicas:           1
# COM priority:                 7.311148346250e-05
# Minimum COM separations:      12.655
# Separation priority:          1.972454824981e-04
# Minimum monomer separations:  9.091
# Cutoff priority:              1.148178526941e-05
# Nuclear repulsion energy:     387.719464476698

memory 7 GB

molecule Dimer_0_49 {
  N            6.27981210      -4.25303372       0.19313865
  N            6.06870777      -2.28125697       1.80544317
  H            3.66871156      -5.64628941      -1.96684001
  H            0.69034521      -2.37545694      -0.42864236
  H            3.35917442       0.17650601       3.09265017
  H            7.35266782      -1.99461311       2.90680702
  C            3.77952586      -1.21508453       1.76858172
  C            2.38242998      -2.55505538       0.04607681
  C            4.01771468      -4.38410490      -0.88761863
--
  N          -20.41714710      -2.29338878       4.85777613
  N          -20.29828483      -4.33129582       6.39494984
  H          -17.74398436       0.10752118       4.13974577
  H          -14.84934780      -2.33501756       6.89488328
  H          -17.78577187      -6.04806657       8.79951959
  H          -21.76069305      -5.14127288       6.78071517
  C          -18.01544843      -4.66147149       7.42399869
  C          -16.53245600      -2.73179927       6.53407622
  C          -18.09376133      -1.34663146       4.94237828
units = au
no_com
no_reorient
}

set {
  e_convergence 10
  d_convergence 10
  scf_type df
  mp2_type df
  cc_type df
  freeze_core true
}

energy('sapt0/aug-cc-pvdz')

--------------------------------------------------------------------------

  //              Dimer HF             //
    Molecular point group: c1
  Charge       = 0
  Multiplicity = 1
  Basis Set: AUG-CC-PVDZ
    Blend: AUG-CC-PVDZ
  Basis Set: (AUG-CC-PVDZ AUX)
    Blend: AUG-CC-PVDZ-JKFIT
  @DF-RHF Final Energy:  -449.52476906030256
    Total Energy =                       -449.5247690603025603
  //            Monomer A HF           //
    Molecular point group: c1
  Multiplicity = 1
  Basis Set: AUG-CC-PVDZ
    Blend: AUG-CC-PVDZ
  Basis Set: (AUG-CC-PVDZ AUX)
    Blend: AUG-CC-PVDZ-JKFIT
  @DF-RHF Final Energy:  -224.76234181494249
    Total Energy =                       -224.7623418149424879
  //            Monomer B HF           //
    Molecular point group: c1

    Geometry (in Bohr), charge = 0, multiplicity = 1:

       Center              X                  Y                   Z               Mass
    ------------   -----------------  -----------------  -----------------  -----------------
      Gh(N)           6.279812100000    -4.253033720000     0.193138650000    14.003074004430
      Gh(N)           6.068707770000    -2.281256970000     1.805443170000    14.003074004430
      Gh(H)           3.668711560000    -5.646289410000    -1.966840010000     1.007825032230
      Gh(H)           0.690345210000    -2.375456940000    -0.428642360000     1.007825032230
      Gh(H)           3.359174420000     0.176506010000     3.092650170000     1.007825032230
      Gh(H)           7.352667820000    -1.994613110000     2.906807020000     1.007825032230
      Gh(C)           3.779525860000    -1.215084530000     1.768581720000    12.000000000000
      Gh(C)           2.382429980000    -2.555055380000     0.046076810000    12.000000000000
      Gh(C)           4.017714680000    -4.384104900000    -0.887618630000    12.000000000000
         N          -20.417147100000    -2.293388780000     4.857776130000    14.003074004430
         N          -20.298284830000    -4.331295820000     6.394949840000    14.003074004430
         H          -17.743984360000     0.107521180000     4.139745770000     1.007825032230
         H          -14.849347800000    -2.335017560000     6.894883280000     1.007825032230
         H          -17.785771870000    -6.048066570000     8.799519590000     1.007825032230
         H          -21.760693050000    -5.141272880000     6.780715170000     1.007825032230
         C          -18.015448430000    -4.661471490000     7.423998690000    12.000000000000
         C          -16.532456000000    -2.731799270000     6.534076220000    12.000000000000
         C          -18.093761330000    -1.346631460000     4.942378280000    12.000000000000

  Charge       = 0
  Multiplicity = 1
  Basis Set: AUG-CC-PVDZ
    Blend: AUG-CC-PVDZ
  Basis Set: (AUG-CC-PVDZ AUX)
    Blend: AUG-CC-PVDZ-JKFIT

    Orbital Energies [Eh]
    ---------------------

    Doubly Occupied:

       1A    -15.636233     2A    -15.592291     3A    -11.279902
       4A    -11.237758     5A    -11.209882     6A     -1.387001
       7A     -1.121893     8A     -1.066927     9A     -0.872759
      10A     -0.837039    11A     -0.757272    12A     -0.645745
      13A     -0.620828    14A     -0.609177    15A     -0.583905
      16A     -0.461413    17A     -0.370715    18A     -0.346054

  @DF-RHF Final Energy:  -224.76243733575797

   => Energetics <=

    Nuclear Repulsion Energy =            166.6286028598332223
    One-Electron Energy =                -633.5084889725239918
    Two-Electron Energy =                 242.1174487769328039
    Total Energy =                       -224.7624373357579657

  Dipole Moment: [D]
     X:     0.7394      Y:    -1.4336      Z:     1.7871     Total:     2.4074

    SAPT Results
  --------------------------------------------------------------------------------------------------------
    Electrostatics                  0.01012431 [mEh]       0.00635310 [kcal/mol]       0.02658136 [kJ/mol]
      Elst10,r                      0.01012431 [mEh]       0.00635310 [kcal/mol]       0.02658136 [kJ/mol]

    Exchange                        0.00000365 [mEh]       0.00000229 [kcal/mol]       0.00000958 [kJ/mol]
      Exch10                        0.00000365 [mEh]       0.00000229 [kcal/mol]       0.00000958 [kJ/mol]
      Exch10(S^2)                   0.00000365 [mEh]       0.00000229 [kcal/mol]       0.00000958 [kJ/mol]

    Induction                      -0.00003756 [mEh]      -0.00002357 [kcal/mol]      -0.00009861 [kJ/mol]
      Ind20,r                      -0.00022280 [mEh]      -0.00013981 [kcal/mol]      -0.00058496 [kJ/mol]
      Exch-Ind20,r                  0.00000621 [mEh]       0.00000390 [kcal/mol]       0.00001630 [kJ/mol]
      delta HF,r (2)                0.00017903 [mEh]       0.00011234 [kcal/mol]       0.00047005 [kJ/mol]

    Dispersion                     -0.00780729 [mEh]      -0.00489915 [kcal/mol]      -0.02049805 [kJ/mol]
      Disp20                       -0.00780762 [mEh]      -0.00489936 [kcal/mol]      -0.02049891 [kJ/mol]
      Exch-Disp20                   0.00000033 [mEh]       0.00000021 [kcal/mol]       0.00000086 [kJ/mol]
      Disp20 (SS)                  -0.00390381 [mEh]      -0.00244968 [kcal/mol]      -0.01024946 [kJ/mol]
      Disp20 (OS)                  -0.00390381 [mEh]      -0.00244968 [kcal/mol]      -0.01024946 [kJ/mol]
      Exch-Disp20 (SS)              0.00000026 [mEh]       0.00000017 [kcal/mol]       0.00000069 [kJ/mol]
      Exch-Disp20 (OS)              0.00000006 [mEh]       0.00000004 [kcal/mol]       0.00000017 [kJ/mol]

  Total HF                          0.01009040 [mEh]       0.00633182 [kcal/mol]       0.02649234 [kJ/mol]
  Total SAPT0                       0.00228310 [mEh]       0.00143267 [kcal/mol]       0.00599429 [kJ/mol]

  Special recipe for scaled SAPT0 (see Manual):
    Electrostatics sSAPT0           0.01012431 [mEh]       0.00635310 [kcal/mol]       0.02658136 [kJ/mol]
    Exchange sSAPT0                 0.00000365 [mEh]       0.00000229 [kcal/mol]       0.00000958 [kJ/mol]
    Induction sSAPT0               -0.00003756 [mEh]      -0.00002357 [kcal/mol]      -0.00009861 [kJ/mol]
    Dispersion sSAPT0              -0.00780729 [mEh]      -0.00489915 [kcal/mol]      -0.02049805 [kJ/mol]
  Total sSAPT0                      0.00228310 [mEh]       0.00143267 [kcal/mol]       0.00599429 [kJ/mol]
  --------------------------------------------------------------------------------------------------------

*** Psi4 exiting successfully. Buy a developer a beer!
