                               Psi4 1.4rc3

  ==> Input File <==

--------------------------------------------------------------------------
# PSI4 file produced by CrystaLattE

# Generated from:               pyrazole.xyz
# Psithon input for N-mer:      2mer-0+121
# Number of atoms per monomer:  [9, 9]
# Number of replicas:           1
# COM priority:                 1.334998120443e-04
# Minimum COM separations:      10.354
# Separation priority:          2.615344683423e-04
# Minimum monomer separations:  8.275
# Cutoff priority:              1.672522279903e-05
# Nuclear repulsion energy:     399.3942206140096

memory 7 GB

molecule Dimer_0_121 {
  N            6.27981210      -4.25303372       0.19313865
  N            6.06870777      -2.28125697       1.80544317
  H            3.66871156      -5.64628941      -1.96684001
  H            0.69034521      -2.37545694      -0.42864236
  H            3.35917442       0.17650601       3.09265017
  H            7.35266782      -1.99461311       2.90680702
  C            3.77952586      -1.21508453       1.76858172
  C            2.38242998      -2.55505538       0.04607681
  C            4.01771468      -4.38410490      -0.88761863
--
  N           18.27499532     -14.18732502       1.58785821
  N           18.39385758     -16.22523205       0.05068450
  H           20.94815806     -11.78641505       2.30588857
  H           23.84279462     -14.22895380      -0.44924894
  H           20.90637054     -17.94200281      -2.35388525
  H           16.93144937     -17.03520911      -0.33508083
  C           20.67669399     -16.55540772      -0.97836435
  C           22.15968642     -14.62573551      -0.08844188
  C           20.59838109     -13.24056769       1.50325606
units = au
no_com
no_reorient
}

set {
  e_convergence 10
  d_convergence 10
  scf_type df
  mp2_type df
  cc_type df
  freeze_core true
}

energy('sapt0/aug-cc-pvdz')

--------------------------------------------------------------------------

  //              Dimer HF             //
    Molecular point group: c1
  Charge       = 0
  Multiplicity = 1
  Basis Set: AUG-CC-PVDZ
    Blend: AUG-CC-PVDZ
  Basis Set: (AUG-CC-PVDZ AUX)
    Blend: AUG-CC-PVDZ-JKFIT
  @DF-RHF Final Energy:  -449.52457310562528
    Total Energy =                       -449.5245731056253362
  //            Monomer A HF           //
    Molecular point group: c1
  Multiplicity = 1
  Basis Set: AUG-CC-PVDZ
    Blend: AUG-CC-PVDZ
  Basis Set: (AUG-CC-PVDZ AUX)
    Blend: AUG-CC-PVDZ-JKFIT
  @DF-RHF Final Energy:  -224.76234247853941
    Total Energy =                       -224.7623424785394093
  //            Monomer B HF           //
    Molecular point group: c1

    Geometry (in Bohr), charge = 0, multiplicity = 1:

       Center              X                  Y                   Z               Mass
    ------------   -----------------  -----------------  -----------------  -----------------
      Gh(N)           6.279812100000    -4.253033720000     0.193138650000    14.003074004430
      Gh(N)           6.068707770000    -2.281256970000     1.805443170000    14.003074004430
      Gh(H)           3.668711560000    -5.646289410000    -1.966840010000     1.007825032230
      Gh(H)           0.690345210000    -2.375456940000    -0.428642360000     1.007825032230
      Gh(H)           3.359174420000     0.176506010000     3.092650170000     1.007825032230
      Gh(H)           7.352667820000    -1.994613110000     2.906807020000     1.007825032230
      Gh(C)           3.779525860000    -1.215084530000     1.768581720000    12.000000000000
      Gh(C)           2.382429980000    -2.555055380000     0.046076810000    12.000000000000
      Gh(C)           4.017714680000    -4.384104900000    -0.887618630000    12.000000000000
         N           18.274995320000   -14.187325020000     1.587858210000    14.003074004430
         N           18.393857580000   -16.225232050000     0.050684500000    14.003074004430
         H           20.948158060000   -11.786415050000     2.305888570000     1.007825032230
         H           23.842794620000   -14.228953800000    -0.449248940000     1.007825032230
         H           20.906370540000   -17.942002810000    -2.353885250000     1.007825032230
         H           16.931449370000   -17.035209110000    -0.335080830000     1.007825032230
         C           20.676693990000   -16.555407720000    -0.978364350000    12.000000000000
         C           22.159686420000   -14.625735510000    -0.088441880000    12.000000000000
         C           20.598381090000   -13.240567690000     1.503256060000    12.000000000000

  Charge       = 0
  Multiplicity = 1
  Basis Set: AUG-CC-PVDZ
    Blend: AUG-CC-PVDZ
  Basis Set: (AUG-CC-PVDZ AUX)
    Blend: AUG-CC-PVDZ-JKFIT

    Orbital Energies [Eh]
    ---------------------

    Doubly Occupied:

       1A    -15.636233     2A    -15.592291     3A    -11.279903
       4A    -11.237754     5A    -11.209883     6A     -1.387001
       7A     -1.121893     8A     -1.066927     9A     -0.872759
      10A     -0.837039    11A     -0.757272    12A     -0.645745
      13A     -0.620828    14A     -0.609177    15A     -0.583905
      16A     -0.461413    17A     -0.370715    18A     -0.346054

  @DF-RHF Final Energy:  -224.76244011944999

   => Energetics <=

    Nuclear Repulsion Energy =            166.6286028410402480
    One-Electron Energy =                -633.5085022847729306
    Two-Electron Energy =                 242.1174593242827200
    Total Energy =                       -224.7624401194499910

  Dipole Moment: [D]
     X:     0.7393      Y:    -1.4336      Z:    -1.7871     Total:     2.4074

    SAPT Results
  --------------------------------------------------------------------------------------------------------
    Electrostatics                  0.21317742 [mEh]       0.13377085 [kcal/mol]       0.55969725 [kJ/mol]
      Elst10,r                      0.21317742 [mEh]       0.13377085 [kcal/mol]       0.55969725 [kJ/mol]

    Exchange                        0.00000152 [mEh]       0.00000096 [kcal/mol]       0.00000400 [kJ/mol]
      Exch10                        0.00000152 [mEh]       0.00000096 [kcal/mol]       0.00000400 [kJ/mol]
      Exch10(S^2)                   0.00000152 [mEh]       0.00000096 [kcal/mol]       0.00000400 [kJ/mol]

    Induction                      -0.00368658 [mEh]      -0.00231337 [kcal/mol]      -0.00967912 [kJ/mol]
      Ind20,r                      -0.00389382 [mEh]      -0.00244341 [kcal/mol]      -0.01022322 [kJ/mol]
      Exch-Ind20,r                  0.00000531 [mEh]       0.00000333 [kcal/mol]       0.00001395 [kJ/mol]
      delta HF,r (2)                0.00020192 [mEh]       0.00012671 [kcal/mol]       0.00053015 [kJ/mol]

    Dispersion                     -0.02378273 [mEh]      -0.01492389 [kcal/mol]      -0.06244156 [kJ/mol]
      Disp20                       -0.02378336 [mEh]      -0.01492428 [kcal/mol]      -0.06244319 [kJ/mol]
      Exch-Disp20                   0.00000062 [mEh]       0.00000039 [kcal/mol]       0.00000163 [kJ/mol]
      Disp20 (SS)                  -0.01189168 [mEh]      -0.00746214 [kcal/mol]      -0.03122160 [kJ/mol]
      Disp20 (OS)                  -0.01189168 [mEh]      -0.00746214 [kcal/mol]      -0.03122160 [kJ/mol]
      Exch-Disp20 (SS)              0.00000052 [mEh]       0.00000033 [kcal/mol]       0.00000137 [kJ/mol]
      Exch-Disp20 (OS)              0.00000010 [mEh]       0.00000006 [kcal/mol]       0.00000026 [kJ/mol]

  Total HF                          0.20949236 [mEh]       0.13145844 [kcal/mol]       0.55002213 [kJ/mol]
  Total SAPT0                       0.18570963 [mEh]       0.11653455 [kcal/mol]       0.48758057 [kJ/mol]

  Special recipe for scaled SAPT0 (see Manual):
    Electrostatics sSAPT0           0.21317742 [mEh]       0.13377085 [kcal/mol]       0.55969725 [kJ/mol]
    Exchange sSAPT0                 0.00000152 [mEh]       0.00000096 [kcal/mol]       0.00000400 [kJ/mol]
    Induction sSAPT0               -0.00368658 [mEh]      -0.00231337 [kcal/mol]      -0.00967912 [kJ/mol]
    Dispersion sSAPT0              -0.02378273 [mEh]      -0.01492389 [kcal/mol]      -0.06244156 [kJ/mol]
  Total sSAPT0                      0.18570963 [mEh]       0.11653455 [kcal/mol]       0.48758057 [kJ/mol]
  --------------------------------------------------------------------------------------------------------

*** Psi4 exiting successfully. Buy a developer a beer!
