                               Psi4 1.4rc3

  ==> Input File <==

--------------------------------------------------------------------------
# PSI4 file produced by CrystaLattE

# Generated from:               pyrazole.xyz
# Psithon input for N-mer:      2mer-0+192
# Number of atoms per monomer:  [9, 9]
# Number of replicas:           1
# COM priority:                 7.950113165051e-05
# Minimum COM separations:      12.307
# Separation priority:          1.251155520479e-04
# Minimum monomer separations:  10.580
# Cutoff priority:              6.257704656485e-06
# Nuclear repulsion energy:     388.6739180898083

memory 7 GB

molecule Dimer_0_192 {
  N            6.27981210      -4.25303372       0.19313865
  N            6.06870777      -2.28125697       1.80544317
  H            3.66871156      -5.64628941      -1.96684001
  H            0.69034521      -2.37545694      -0.42864236
  H            3.35917442       0.17650601       3.09265017
  H            7.35266782      -1.99461311       2.90680702
  C            3.77952586      -1.21508453       1.76858172
  C            2.38242998      -2.55505538       0.04607681
  C            4.01771468      -4.38410490      -0.88761863
--
  N           18.27499532     -14.18732502      14.38697326
  N           18.39385758     -16.22523205      12.84979954
  H           20.94815806     -11.78641505      15.10500361
  H           23.84279462     -14.22895380      12.34986611
  H           20.90637054     -17.94200281      10.44522980
  H           16.93144937     -17.03520911      12.46403422
  C           20.67669399     -16.55540772      11.82075069
  C           22.15968642     -14.62573551      12.71067316
  C           20.59838109     -13.24056769      14.30237111
units = au
no_com
no_reorient
}

set {
  e_convergence 10
  d_convergence 10
  scf_type df
  mp2_type df
  cc_type df
  freeze_core true
}

energy('sapt0/aug-cc-pvdz')

--------------------------------------------------------------------------

  //              Dimer HF             //
    Molecular point group: c1
  Charge       = 0
  Multiplicity = 1
  Basis Set: AUG-CC-PVDZ
    Blend: AUG-CC-PVDZ
  Basis Set: (AUG-CC-PVDZ AUX)
    Blend: AUG-CC-PVDZ-JKFIT
  @DF-RHF Final Energy:  -449.52486006330679
    Total Energy =                       -449.5248600633067326
  //            Monomer A HF           //
    Molecular point group: c1
  Multiplicity = 1
  Basis Set: AUG-CC-PVDZ
    Blend: AUG-CC-PVDZ
  Basis Set: (AUG-CC-PVDZ AUX)
    Blend: AUG-CC-PVDZ-JKFIT
  @DF-RHF Final Energy:  -224.76233957905782
    Total Energy =                       -224.7623395790578229
  //            Monomer B HF           //
    Molecular point group: c1

    Geometry (in Bohr), charge = 0, multiplicity = 1:

       Center              X                  Y                   Z               Mass
    ------------   -----------------  -----------------  -----------------  -----------------
      Gh(N)           6.279812100000    -4.253033720000     0.193138650000    14.003074004430
      Gh(N)           6.068707770000    -2.281256970000     1.805443170000    14.003074004430
      Gh(H)           3.668711560000    -5.646289410000    -1.966840010000     1.007825032230
      Gh(H)           0.690345210000    -2.375456940000    -0.428642360000     1.007825032230
      Gh(H)           3.359174420000     0.176506010000     3.092650170000     1.007825032230
      Gh(H)           7.352667820000    -1.994613110000     2.906807020000     1.007825032230
      Gh(C)           3.779525860000    -1.215084530000     1.768581720000    12.000000000000
      Gh(C)           2.382429980000    -2.555055380000     0.046076810000    12.000000000000
      Gh(C)           4.017714680000    -4.384104900000    -0.887618630000    12.000000000000
         N           18.274995320000   -14.187325020000    14.386973260000    14.003074004430
         N           18.393857580000   -16.225232050000    12.849799540000    14.003074004430
         H           20.948158060000   -11.786415050000    15.105003610000     1.007825032230
         H           23.842794620000   -14.228953800000    12.349866110000     1.007825032230
         H           20.906370540000   -17.942002810000    10.445229800000     1.007825032230
         H           16.931449370000   -17.035209110000    12.464034220000     1.007825032230
         C           20.676693990000   -16.555407720000    11.820750690000    12.000000000000
         C           22.159686420000   -14.625735510000    12.710673160000    12.000000000000
         C           20.598381090000   -13.240567690000    14.302371110000    12.000000000000

  Charge       = 0
  Multiplicity = 1
  Basis Set: AUG-CC-PVDZ
    Blend: AUG-CC-PVDZ
  Basis Set: (AUG-CC-PVDZ AUX)
    Blend: AUG-CC-PVDZ-JKFIT

    Orbital Energies [Eh]
    ---------------------

    Doubly Occupied:

       1A    -15.636233     2A    -15.592291     3A    -11.279903
       4A    -11.237758     5A    -11.209884     6A     -1.387001
       7A     -1.121894     8A     -1.066928     9A     -0.872759
      10A     -0.837039    11A     -0.757272    12A     -0.645745
      13A     -0.620828    14A     -0.609177    15A     -0.583905
      16A     -0.461413    17A     -0.370715    18A     -0.346055

  @DF-RHF Final Energy:  -224.76243528242000

   => Energetics <=

    Nuclear Repulsion Energy =            166.6286027538986900
    One-Electron Energy =                -633.5084749147667935
    Two-Electron Energy =                 242.1174368784481032
    Total Energy =                       -224.7624352824200002

  Dipole Moment: [D]
     X:     0.7394      Y:    -1.4336      Z:    -1.7871     Total:     2.4074

    SAPT Results
  --------------------------------------------------------------------------------------------------------
    Electrostatics                 -0.08473744 [mEh]      -0.05317354 [kcal/mol]      -0.22247811 [kJ/mol]
      Elst10,r                     -0.08473744 [mEh]      -0.05317354 [kcal/mol]      -0.22247811 [kJ/mol]

    Exchange                        0.00000003 [mEh]       0.00000002 [kcal/mol]       0.00000009 [kJ/mol]
      Exch10                        0.00000003 [mEh]       0.00000002 [kcal/mol]       0.00000009 [kJ/mol]
      Exch10(S^2)                   0.00000003 [mEh]       0.00000002 [kcal/mol]       0.00000009 [kJ/mol]

    Induction                      -0.00046443 [mEh]      -0.00029143 [kcal/mol]      -0.00121935 [kJ/mol]
      Ind20,r                      -0.00051943 [mEh]      -0.00032595 [kcal/mol]      -0.00136376 [kJ/mol]
      Exch-Ind20,r                  0.00000020 [mEh]       0.00000013 [kcal/mol]       0.00000054 [kJ/mol]
      delta HF,r (2)                0.00005480 [mEh]       0.00003439 [kcal/mol]       0.00014387 [kJ/mol]

    Dispersion                     -0.00663019 [mEh]      -0.00416051 [kcal/mol]      -0.01740755 [kJ/mol]
      Disp20                       -0.00663021 [mEh]      -0.00416052 [kcal/mol]      -0.01740761 [kJ/mol]
      Exch-Disp20                   0.00000002 [mEh]       0.00000001 [kcal/mol]       0.00000006 [kJ/mol]
      Disp20 (SS)                  -0.00331510 [mEh]      -0.00208026 [kcal/mol]      -0.00870381 [kJ/mol]
      Disp20 (OS)                  -0.00331510 [mEh]      -0.00208026 [kcal/mol]      -0.00870381 [kJ/mol]
      Exch-Disp20 (SS)              0.00000002 [mEh]       0.00000001 [kcal/mol]       0.00000005 [kJ/mol]
      Exch-Disp20 (OS)              0.00000000 [mEh]       0.00000000 [kcal/mol]       0.00000001 [kJ/mol]

  Total HF                         -0.08520183 [mEh]      -0.05346495 [kcal/mol]      -0.22369737 [kJ/mol]
  Total SAPT0                      -0.09183202 [mEh]      -0.05762546 [kcal/mol]      -0.24110493 [kJ/mol]

  Special recipe for scaled SAPT0 (see Manual):
    Electrostatics sSAPT0          -0.08473744 [mEh]      -0.05317354 [kcal/mol]      -0.22247811 [kJ/mol]
    Exchange sSAPT0                 0.00000003 [mEh]       0.00000002 [kcal/mol]       0.00000009 [kJ/mol]
    Induction sSAPT0               -0.00046443 [mEh]      -0.00029143 [kcal/mol]      -0.00121935 [kJ/mol]
    Dispersion sSAPT0              -0.00663019 [mEh]      -0.00416051 [kcal/mol]      -0.01740755 [kJ/mol]
  Total sSAPT0                     -0.09183202 [mEh]      -0.05762546 [kcal/mol]      -0.24110493 [kJ/mol]
  --------------------------------------------------------------------------------------------------------

*** Psi4 exiting successfully. Buy a developer a beer!
