                               Psi4 1.4rc3

  ==> Input File <==

--------------------------------------------------------------------------
# PSI4 file produced by CrystaLattE

# Generated from:               pyrazole.xyz
# Psithon input for N-mer:      2mer-0+160
# Number of atoms per monomer:  [9, 9]
# Number of replicas:           2
# COM priority:                 3.006557350651e-05
# Minimum COM separations:      17.018
# Separation priority:          5.972727846937e-05
# Minimum monomer separations:  13.538
# Cutoff priority:              2.334695797316e-06
# Nuclear repulsion energy:     373.63511917237986

memory 7 GB

molecule Dimer_0_160 {
  N            6.27981210      -4.25303372       0.19313865
  N            6.06870777      -2.28125697       1.80544317
  H            3.66871156      -5.64628941      -1.96684001
  H            0.69034521      -2.37545694      -0.42864236
  H            3.35917442       0.17650601       3.09265017
  H            7.35266782      -1.99461311       2.90680702
  C            3.77952586      -1.21508453       1.76858172
  C            2.38242998      -2.55505538       0.04607681
  C            4.01771468      -4.38410490      -0.88761863
--
  N          -24.67390184      -7.53338133      -6.20641888
  N          -24.88500617      -9.50515808      -4.59411436
  H          -27.28500238      -6.14012564      -8.36639753
  H          -30.26336873      -9.41095811      -6.82819989
  H          -27.59453951     -11.96292106      -3.30690735
  H          -23.60104611      -9.79180194      -3.49275051
  C          -27.17418808     -10.57133052      -4.63097581
  C          -28.57128396      -9.23135967      -6.35348071
  C          -26.93599925      -7.40231015      -7.28717615
units = au
no_com
no_reorient
}

set {
  e_convergence 10
  d_convergence 10
  scf_type df
  mp2_type df
  cc_type df
  freeze_core true
}

energy('sapt0/aug-cc-pvdz')

--------------------------------------------------------------------------

  //              Dimer HF             //
    Molecular point group: c1
  Charge       = 0
  Multiplicity = 1
  Basis Set: AUG-CC-PVDZ
    Blend: AUG-CC-PVDZ
  Basis Set: (AUG-CC-PVDZ AUX)
    Blend: AUG-CC-PVDZ-JKFIT
  @DF-RHF Final Energy:  -449.52468933438109
    Total Energy =                       -449.5246893343810370
  //            Monomer A HF           //
    Molecular point group: c1
  Multiplicity = 1
  Basis Set: AUG-CC-PVDZ
    Blend: AUG-CC-PVDZ
  Basis Set: (AUG-CC-PVDZ AUX)
    Blend: AUG-CC-PVDZ-JKFIT
  @DF-RHF Final Energy:  -224.76233952029168
    Total Energy =                       -224.7623395202916754
  //            Monomer B HF           //
    Molecular point group: c1

    Geometry (in Bohr), charge = 0, multiplicity = 1:

       Center              X                  Y                   Z               Mass
    ------------   -----------------  -----------------  -----------------  -----------------
      Gh(N)           6.279812100000    -4.253033720000     0.193138650000    14.003074004430
      Gh(N)           6.068707770000    -2.281256970000     1.805443170000    14.003074004430
      Gh(H)           3.668711560000    -5.646289410000    -1.966840010000     1.007825032230
      Gh(H)           0.690345210000    -2.375456940000    -0.428642360000     1.007825032230
      Gh(H)           3.359174420000     0.176506010000     3.092650170000     1.007825032230
      Gh(H)           7.352667820000    -1.994613110000     2.906807020000     1.007825032230
      Gh(C)           3.779525860000    -1.215084530000     1.768581720000    12.000000000000
      Gh(C)           2.382429980000    -2.555055380000     0.046076810000    12.000000000000
      Gh(C)           4.017714680000    -4.384104900000    -0.887618630000    12.000000000000
         N          -24.673901840000    -7.533381330000    -6.206418880000    14.003074004430
         N          -24.885006170000    -9.505158080000    -4.594114360000    14.003074004430
         H          -27.285002380000    -6.140125640000    -8.366397530000     1.007825032230
         H          -30.263368730000    -9.410958110000    -6.828199890000     1.007825032230
         H          -27.594539510000   -11.962921060000    -3.306907350000     1.007825032230
         H          -23.601046110000    -9.791801940000    -3.492750510000     1.007825032230
         C          -27.174188080000   -10.571330520000    -4.630975810000    12.000000000000
         C          -28.571283960000    -9.231359670000    -6.353480710000    12.000000000000
         C          -26.935999250000    -7.402310150000    -7.287176150000    12.000000000000

  Charge       = 0
  Multiplicity = 1
  Basis Set: AUG-CC-PVDZ
    Blend: AUG-CC-PVDZ
  Basis Set: (AUG-CC-PVDZ AUX)
    Blend: AUG-CC-PVDZ-JKFIT

    Orbital Energies [Eh]
    ---------------------

    Doubly Occupied:

       1A    -15.636223     2A    -15.592313     3A    -11.279894
       4A    -11.237784     5A    -11.209891     6A     -1.386922
       7A     -1.121901     8A     -1.066898     9A     -0.872768
      10A     -0.837061    11A     -0.757292    12A     -0.645746
      13A     -0.620834    14A     -0.609140    15A     -0.583920
      16A     -0.461404    17A     -0.370721    18A     -0.346048

  @DF-RHF Final Energy:  -224.76233952552752

   => Energetics <=

    Nuclear Repulsion Energy =            166.6240565617576124
    One-Electron Energy =                -633.4992736274388108
    Two-Electron Energy =                 242.1128775401537041
    Total Energy =                       -224.7623395255275227

  Dipole Moment: [D]
     X:    -1.0235      Y:    -1.6055      Z:     1.4733     Total:     2.4075

    SAPT Results
  --------------------------------------------------------------------------------------------------------
    Electrostatics                 -0.01030102 [mEh]      -0.00646399 [kcal/mol]      -0.02704533 [kJ/mol]
      Elst10,r                     -0.01030102 [mEh]      -0.00646399 [kcal/mol]      -0.02704533 [kJ/mol]

    Exchange                        0.00000000 [mEh]       0.00000000 [kcal/mol]       0.00000000 [kJ/mol]
      Exch10                        0.00000000 [mEh]       0.00000000 [kcal/mol]       0.00000000 [kJ/mol]
      Exch10(S^2)                   0.00000000 [mEh]       0.00000000 [kcal/mol]       0.00000000 [kJ/mol]

    Induction                       0.00001246 [mEh]       0.00000782 [kcal/mol]       0.00003272 [kJ/mol]
      Ind20,r                      -0.00005697 [mEh]      -0.00003575 [kcal/mol]      -0.00014957 [kJ/mol]
      Exch-Ind20,r                  0.00000000 [mEh]       0.00000000 [kcal/mol]       0.00000000 [kJ/mol]
      delta HF,r (2)                0.00006943 [mEh]       0.00004357 [kcal/mol]       0.00018228 [kJ/mol]

    Dispersion                     -0.00119918 [mEh]      -0.00075250 [kcal/mol]      -0.00314846 [kJ/mol]
      Disp20                       -0.00119918 [mEh]      -0.00075250 [kcal/mol]      -0.00314846 [kJ/mol]
      Exch-Disp20                   0.00000000 [mEh]       0.00000000 [kcal/mol]       0.00000000 [kJ/mol]
      Disp20 (SS)                  -0.00059959 [mEh]      -0.00037625 [kcal/mol]      -0.00157423 [kJ/mol]
      Disp20 (OS)                  -0.00059959 [mEh]      -0.00037625 [kcal/mol]      -0.00157423 [kJ/mol]
      Exch-Disp20 (SS)              0.00000000 [mEh]       0.00000000 [kcal/mol]       0.00000000 [kJ/mol]
      Exch-Disp20 (OS)              0.00000000 [mEh]       0.00000000 [kcal/mol]       0.00000000 [kJ/mol]

  Total HF                         -0.01028856 [mEh]      -0.00645617 [kcal/mol]      -0.02701262 [kJ/mol]
  Total SAPT0                      -0.01148775 [mEh]      -0.00720867 [kcal/mol]      -0.03016107 [kJ/mol]

  Special recipe for scaled SAPT0 (see Manual):
    Electrostatics sSAPT0          -0.01030102 [mEh]      -0.00646399 [kcal/mol]      -0.02704533 [kJ/mol]
    Exchange sSAPT0                 0.00000000 [mEh]       0.00000000 [kcal/mol]       0.00000000 [kJ/mol]
    Induction sSAPT0                0.00001246 [mEh]       0.00000782 [kcal/mol]       0.00003272 [kJ/mol]
    Dispersion sSAPT0              -0.00119918 [mEh]      -0.00075250 [kcal/mol]      -0.00314846 [kJ/mol]
  Total sSAPT0                     -0.01148775 [mEh]      -0.00720867 [kcal/mol]      -0.03016107 [kJ/mol]
  --------------------------------------------------------------------------------------------------------

*** Psi4 exiting successfully. Buy a developer a beer!
