                               Psi4 1.4rc3

  ==> Input File <==

--------------------------------------------------------------------------
# PSI4 file produced by CrystaLattE

# Generated from:               pyrazole.xyz
# Psithon input for N-mer:      2mer-0+402
# Number of atoms per monomer:  [9, 9]
# Number of replicas:           1
# COM priority:                 1.346076515076e-05
# Minimum COM separations:      22.246
# Separation priority:          2.037225028205e-05
# Minimum monomer separations:  19.376
# Cutoff priority:              5.563977144959e-07
# Nuclear repulsion energy:     364.0975553095129

memory 7 GB

molecule Dimer_0_402 {
  N            6.27981210      -4.25303372       0.19313865
  N            6.06870777      -2.28125697       1.80544317
  H            3.66871156      -5.64628941      -1.96684001
  H            0.69034521      -2.37545694      -0.42864236
  H            3.35917442       0.17650601       3.09265017
  H            7.35266782      -1.99461311       2.90680702
  C            3.77952586      -1.21508453       1.76858172
  C            2.38242998      -2.55505538       0.04607681
  C            4.01771468      -4.38410490      -0.88761863
--
  N          -28.15557558       9.60054745     -24.01037188
  N          -28.03671332       7.56264041     -25.54754560
  H          -25.48241284      12.00145742     -23.29234153
  H          -22.58777629       9.55891867     -26.04747903
  H          -25.52420036       5.84586966     -27.95211534
  H          -29.49912153       6.75266336     -25.93331093
  C          -25.75387692       7.23246474     -26.57659445
  C          -24.27088448       9.16213696     -25.68667198
  C          -25.83218981      10.54730477     -24.09497403
units = au
no_com
no_reorient
}

set {
  e_convergence 10
  d_convergence 10
  scf_type df
  mp2_type df
  cc_type df
  freeze_core true
}

energy('sapt0/aug-cc-pvdz')

--------------------------------------------------------------------------

  //              Dimer HF             //
    Molecular point group: c1
  Charge       = 0
  Multiplicity = 1
  Basis Set: AUG-CC-PVDZ
    Blend: AUG-CC-PVDZ
  Basis Set: (AUG-CC-PVDZ AUX)
    Blend: AUG-CC-PVDZ-JKFIT
  @DF-RHF Final Energy:  -449.52478394004083
    Total Energy =                       -449.5247839400408338
  //            Monomer A HF           //
    Molecular point group: c1
  Multiplicity = 1
  Basis Set: AUG-CC-PVDZ
    Blend: AUG-CC-PVDZ
  Basis Set: (AUG-CC-PVDZ AUX)
    Blend: AUG-CC-PVDZ-JKFIT
  @DF-RHF Final Energy:  -224.76233952179240
    Total Energy =                       -224.7623395217923985
  //            Monomer B HF           //
    Molecular point group: c1

    Geometry (in Bohr), charge = 0, multiplicity = 1:

       Center              X                  Y                   Z               Mass
    ------------   -----------------  -----------------  -----------------  -----------------
      Gh(N)           6.279812100000    -4.253033720000     0.193138650000    14.003074004430
      Gh(N)           6.068707770000    -2.281256970000     1.805443170000    14.003074004430
      Gh(H)           3.668711560000    -5.646289410000    -1.966840010000     1.007825032230
      Gh(H)           0.690345210000    -2.375456940000    -0.428642360000     1.007825032230
      Gh(H)           3.359174420000     0.176506010000     3.092650170000     1.007825032230
      Gh(H)           7.352667820000    -1.994613110000     2.906807020000     1.007825032230
      Gh(C)           3.779525860000    -1.215084530000     1.768581720000    12.000000000000
      Gh(C)           2.382429980000    -2.555055380000     0.046076810000    12.000000000000
      Gh(C)           4.017714680000    -4.384104900000    -0.887618630000    12.000000000000
         N          -28.155575580000     9.600547450000   -24.010371880000    14.003074004430
         N          -28.036713320000     7.562640410000   -25.547545600000    14.003074004430
         H          -25.482412840000    12.001457420000   -23.292341530000     1.007825032230
         H          -22.587776290000     9.558918670000   -26.047479030000     1.007825032230
         H          -25.524200360000     5.845869660000   -27.952115340000     1.007825032230
         H          -29.499121530000     6.752663360000   -25.933310930000     1.007825032230
         C          -25.753876920000     7.232464740000   -26.576594450000    12.000000000000
         C          -24.270884480000     9.162136960000   -25.686671980000    12.000000000000
         C          -25.832189810000    10.547304770000   -24.094974030000    12.000000000000

  Charge       = 0
  Multiplicity = 1
  Basis Set: AUG-CC-PVDZ
    Blend: AUG-CC-PVDZ
  Basis Set: (AUG-CC-PVDZ AUX)
    Blend: AUG-CC-PVDZ-JKFIT

    Orbital Energies [Eh]
    ---------------------

    Doubly Occupied:

       1A    -15.636233     2A    -15.592291     3A    -11.279903
       4A    -11.237759     5A    -11.209884     6A     -1.387001
       7A     -1.121894     8A     -1.066928     9A     -0.872759
      10A     -0.837039    11A     -0.757272    12A     -0.645745
      13A     -0.620828    14A     -0.609177    15A     -0.583905
      16A     -0.461413    17A     -0.370715    18A     -0.346055

  @DF-RHF Final Energy:  -224.76243506247295

   => Energetics <=

    Nuclear Repulsion Energy =            166.6286027509455039
    One-Electron Energy =                -633.5084732834196757
    Two-Electron Energy =                 242.1174354700012259
    Total Energy =                       -224.7624350624729459

  Dipole Moment: [D]
     X:     0.7394      Y:    -1.4336      Z:    -1.7871     Total:     2.4074

    SAPT Results
  --------------------------------------------------------------------------------------------------------
    Electrostatics                 -0.00942273 [mEh]      -0.00591285 [kcal/mol]      -0.02473938 [kJ/mol]
      Elst10,r                     -0.00942273 [mEh]      -0.00591285 [kcal/mol]      -0.02473938 [kJ/mol]

    Exchange                        0.00000000 [mEh]       0.00000000 [kcal/mol]       0.00000000 [kJ/mol]
      Exch10                        0.00000000 [mEh]       0.00000000 [kcal/mol]       0.00000000 [kJ/mol]
      Exch10(S^2)                   0.00000000 [mEh]       0.00000000 [kcal/mol]       0.00000000 [kJ/mol]

    Induction                       0.00006696 [mEh]       0.00004202 [kcal/mol]       0.00017580 [kJ/mol]
      Ind20,r                      -0.00000637 [mEh]      -0.00000400 [kcal/mol]      -0.00001672 [kJ/mol]
      Exch-Ind20,r                  0.00000000 [mEh]       0.00000000 [kcal/mol]       0.00000000 [kJ/mol]
      delta HF,r (2)                0.00007333 [mEh]       0.00004601 [kcal/mol]       0.00019252 [kJ/mol]

    Dispersion                     -0.00021081 [mEh]      -0.00013229 [kcal/mol]      -0.00055349 [kJ/mol]
      Disp20                       -0.00021081 [mEh]      -0.00013229 [kcal/mol]      -0.00055349 [kJ/mol]
      Exch-Disp20                   0.00000000 [mEh]       0.00000000 [kcal/mol]       0.00000000 [kJ/mol]
      Disp20 (SS)                  -0.00010541 [mEh]      -0.00006614 [kcal/mol]      -0.00027674 [kJ/mol]
      Disp20 (OS)                  -0.00010541 [mEh]      -0.00006614 [kcal/mol]      -0.00027674 [kJ/mol]
      Exch-Disp20 (SS)              0.00000000 [mEh]       0.00000000 [kcal/mol]       0.00000000 [kJ/mol]
      Exch-Disp20 (OS)              0.00000000 [mEh]       0.00000000 [kcal/mol]       0.00000000 [kJ/mol]

  Total HF                         -0.00935578 [mEh]      -0.00587084 [kcal/mol]      -0.02456359 [kJ/mol]
  Total SAPT0                      -0.00956659 [mEh]      -0.00600312 [kcal/mol]      -0.02511707 [kJ/mol]

  Special recipe for scaled SAPT0 (see Manual):
    Electrostatics sSAPT0          -0.00942273 [mEh]      -0.00591285 [kcal/mol]      -0.02473938 [kJ/mol]
    Exchange sSAPT0                 0.00000000 [mEh]       0.00000000 [kcal/mol]       0.00000000 [kJ/mol]
    Induction sSAPT0                0.00006696 [mEh]       0.00004202 [kcal/mol]       0.00017580 [kJ/mol]
    Dispersion sSAPT0              -0.00021081 [mEh]      -0.00013229 [kcal/mol]      -0.00055349 [kJ/mol]
  Total sSAPT0                     -0.00956659 [mEh]      -0.00600312 [kcal/mol]      -0.02511707 [kJ/mol]
  --------------------------------------------------------------------------------------------------------

*** Psi4 exiting successfully. Buy a developer a beer!
