                               Psi4 1.4rc3

  ==> Input File <==

--------------------------------------------------------------------------
# PSI4 file produced by CrystaLattE

# Generated from:               pyrazole.xyz
# Psithon input for N-mer:      2mer-0+169
# Number of atoms per monomer:  [9, 9]
# Number of replicas:           2
# COM priority:                 2.819764133534e-05
# Minimum COM separations:      17.386
# Separation priority:          5.918136344543e-05
# Minimum monomer separations:  13.579
# Cutoff priority:              2.306286668334e-06
# Nuclear repulsion energy:     372.8403585306427

memory 7 GB

molecule Dimer_0_169 {
  N            6.27981210      -4.25303372       0.19313865
  N            6.06870777      -2.28125697       1.80544317
  H            3.66871156      -5.64628941      -1.96684001
  H            0.69034521      -2.37545694      -0.42864236
  H            3.35917442       0.17650601       3.09265017
  H            7.35266782      -1.99461311       2.90680702
  C            3.77952586      -1.21508453       1.76858172
  C            2.38242998      -2.55505538       0.04607681
  C            4.01771468      -4.38410490      -0.88761863
--
  N           -1.45861638      28.14842737      12.65205322
  N           -1.66972071      26.17665062      11.03974869
  H           -4.06971692      29.54168306      14.81203187
  H           -7.04808328      26.27085060      13.27383422
  H           -4.37925406      23.71888764       9.75254169
  H           -0.38576066      25.89000676       9.93838484
  C           -3.95890263      25.11047818      11.07661014
  C           -5.35599851      26.45044903      12.79911505
  C           -3.72071380      28.27949855      13.73281049
units = au
no_com
no_reorient
}

set {
  e_convergence 10
  d_convergence 10
  scf_type df
  mp2_type df
  cc_type df
  freeze_core true
}

energy('sapt0/aug-cc-pvdz')

--------------------------------------------------------------------------

  //              Dimer HF             //
    Molecular point group: c1
  Charge       = 0
  Multiplicity = 1
  Basis Set: AUG-CC-PVDZ
    Blend: AUG-CC-PVDZ
  Basis Set: (AUG-CC-PVDZ AUX)
    Blend: AUG-CC-PVDZ-JKFIT
  @DF-RHF Final Energy:  -449.52464712600573
    Total Energy =                       -449.5246471260057888
  //            Monomer A HF           //
    Molecular point group: c1
  Multiplicity = 1
  Basis Set: AUG-CC-PVDZ
    Blend: AUG-CC-PVDZ
  Basis Set: (AUG-CC-PVDZ AUX)
    Blend: AUG-CC-PVDZ-JKFIT
  @DF-RHF Final Energy:  -224.76233952165757
    Total Energy =                       -224.7623395216575659
  //            Monomer B HF           //
    Molecular point group: c1

    Geometry (in Bohr), charge = 0, multiplicity = 1:

       Center              X                  Y                   Z               Mass
    ------------   -----------------  -----------------  -----------------  -----------------
      Gh(N)           6.279812100000    -4.253033720000     0.193138650000    14.003074004430
      Gh(N)           6.068707770000    -2.281256970000     1.805443170000    14.003074004430
      Gh(H)           3.668711560000    -5.646289410000    -1.966840010000     1.007825032230
      Gh(H)           0.690345210000    -2.375456940000    -0.428642360000     1.007825032230
      Gh(H)           3.359174420000     0.176506010000     3.092650170000     1.007825032230
      Gh(H)           7.352667820000    -1.994613110000     2.906807020000     1.007825032230
      Gh(C)           3.779525860000    -1.215084530000     1.768581720000    12.000000000000
      Gh(C)           2.382429980000    -2.555055380000     0.046076810000    12.000000000000
      Gh(C)           4.017714680000    -4.384104900000    -0.887618630000    12.000000000000
         N           -1.458616380000    28.148427370000    12.652053220000    14.003074004430
         N           -1.669720710000    26.176650620000    11.039748690000    14.003074004430
         H           -4.069716920000    29.541683060000    14.812031870000     1.007825032230
         H           -7.048083280000    26.270850600000    13.273834220000     1.007825032230
         H           -4.379254060000    23.718887640000     9.752541690000     1.007825032230
         H           -0.385760660000    25.890006760000     9.938384840000     1.007825032230
         C           -3.958902630000    25.110478180000    11.076610140000    12.000000000000
         C           -5.355998510000    26.450449030000    12.799115050000    12.000000000000
         C           -3.720713800000    28.279498550000    13.732810490000    12.000000000000

  Charge       = 0
  Multiplicity = 1
  Basis Set: AUG-CC-PVDZ
    Blend: AUG-CC-PVDZ
  Basis Set: (AUG-CC-PVDZ AUX)
    Blend: AUG-CC-PVDZ-JKFIT

    Orbital Energies [Eh]
    ---------------------

    Doubly Occupied:

       1A    -15.636223     2A    -15.592313     3A    -11.279894
       4A    -11.237784     5A    -11.209891     6A     -1.386922
       7A     -1.121901     8A     -1.066898     9A     -0.872768
      10A     -0.837061    11A     -0.757292    12A     -0.645746
      13A     -0.620834    14A     -0.609140    15A     -0.583920
      16A     -0.461404    17A     -0.370721    18A     -0.346048

  @DF-RHF Final Energy:  -224.76233952212510

   => Energetics <=

    Nuclear Repulsion Energy =            166.6240562630222257
    One-Electron Energy =                -633.4992730266435501
    Two-Electron Energy =                 242.1128772414962214
    Total Energy =                       -224.7623395221251030

  Dipole Moment: [D]
     X:    -1.0235      Y:    -1.6055      Z:    -1.4733     Total:     2.4075

    SAPT Results
  --------------------------------------------------------------------------------------------------------
    Electrostatics                  0.03197285 [mEh]       0.02006327 [kcal/mol]       0.08394470 [kJ/mol]
      Elst10,r                      0.03197285 [mEh]       0.02006327 [kcal/mol]       0.08394470 [kJ/mol]

    Exchange                        0.00000000 [mEh]       0.00000000 [kcal/mol]       0.00000001 [kJ/mol]
      Exch10                        0.00000000 [mEh]       0.00000000 [kcal/mol]       0.00000001 [kJ/mol]
      Exch10(S^2)                   0.00000000 [mEh]       0.00000000 [kcal/mol]       0.00000001 [kJ/mol]

    Induction                      -0.00005507 [mEh]      -0.00003456 [kcal/mol]      -0.00014460 [kJ/mol]
      Ind20,r                      -0.00012776 [mEh]      -0.00008017 [kcal/mol]      -0.00033544 [kJ/mol]
      Exch-Ind20,r                  0.00000000 [mEh]       0.00000000 [kcal/mol]       0.00000001 [kJ/mol]
      delta HF,r (2)                0.00007268 [mEh]       0.00004561 [kcal/mol]       0.00019083 [kJ/mol]

    Dispersion                     -0.00107709 [mEh]      -0.00067589 [kcal/mol]      -0.00282791 [kJ/mol]
      Disp20                       -0.00107709 [mEh]      -0.00067589 [kcal/mol]      -0.00282791 [kJ/mol]
      Exch-Disp20                   0.00000000 [mEh]       0.00000000 [kcal/mol]       0.00000000 [kJ/mol]
      Disp20 (SS)                  -0.00053855 [mEh]      -0.00033794 [kcal/mol]      -0.00141395 [kJ/mol]
      Disp20 (OS)                  -0.00053855 [mEh]      -0.00033794 [kcal/mol]      -0.00141395 [kJ/mol]
      Exch-Disp20 (SS)              0.00000000 [mEh]       0.00000000 [kcal/mol]       0.00000000 [kJ/mol]
      Exch-Disp20 (OS)              0.00000000 [mEh]       0.00000000 [kcal/mol]       0.00000000 [kJ/mol]

  Total HF                          0.03191778 [mEh]       0.02002871 [kcal/mol]       0.08380011 [kJ/mol]
  Total SAPT0                       0.03084068 [mEh]       0.01935282 [kcal/mol]       0.08097220 [kJ/mol]

  Special recipe for scaled SAPT0 (see Manual):
    Electrostatics sSAPT0           0.03197285 [mEh]       0.02006327 [kcal/mol]       0.08394470 [kJ/mol]
    Exchange sSAPT0                 0.00000000 [mEh]       0.00000000 [kcal/mol]       0.00000001 [kJ/mol]
    Induction sSAPT0               -0.00005507 [mEh]      -0.00003456 [kcal/mol]      -0.00014460 [kJ/mol]
    Dispersion sSAPT0              -0.00107709 [mEh]      -0.00067589 [kcal/mol]      -0.00282791 [kJ/mol]
  Total sSAPT0                      0.03084068 [mEh]       0.01935282 [kcal/mol]       0.08097220 [kJ/mol]
  --------------------------------------------------------------------------------------------------------

*** Psi4 exiting successfully. Buy a developer a beer!
