                               Psi4 1.4rc3

  ==> Input File <==

--------------------------------------------------------------------------
# PSI4 file produced by CrystaLattE

# Generated from:               pyrazole.xyz
# Psithon input for N-mer:      2mer-0+130
# Number of atoms per monomer:  [9, 9]
# Number of replicas:           1
# COM priority:                 3.415490640472e-05
# Minimum COM separations:      16.310
# Separation priority:          7.244197585420e-05
# Minimum monomer separations:  12.694
# Cutoff priority:              3.019861668430e-06
# Nuclear repulsion energy:     375.502726786856

memory 7 GB

molecule Dimer_0_130 {
  N            6.27981210      -4.25303372       0.19313865
  N            6.06870777      -2.28125697       1.80544317
  H            3.66871156      -5.64628941      -1.96684001
  H            0.69034521      -2.37545694      -0.42864236
  H            3.35917442       0.17650601       3.09265017
  H            7.35266782      -1.99461311       2.90680702
  C            3.77952586      -1.21508453       1.76858172
  C            2.38242998      -2.55505538       0.04607681
  C            4.01771468      -4.38410490      -0.88761863
--
  N          -20.41714710      -2.29338878     -20.74045397
  N          -20.29828483      -4.33129582     -19.20328025
  H          -17.74398436       0.10752118     -21.45848432
  H          -14.84934780      -2.33501756     -18.70334682
  H          -17.78577187      -6.04806657     -16.79871051
  H          -21.76069305      -5.14127288     -18.81751493
  C          -18.01544843      -4.66147149     -18.17423140
  C          -16.53245600      -2.73179927     -19.06415387
  C          -18.09376133      -1.34663146     -20.65585182
units = au
no_com
no_reorient
}

set {
  e_convergence 10
  d_convergence 10
  scf_type df
  mp2_type df
  cc_type df
  freeze_core true
}

energy('sapt0/aug-cc-pvdz')

--------------------------------------------------------------------------

  //              Dimer HF             //
    Molecular point group: c1
  Charge       = 0
  Multiplicity = 1
  Basis Set: AUG-CC-PVDZ
    Blend: AUG-CC-PVDZ
  Basis Set: (AUG-CC-PVDZ AUX)
    Blend: AUG-CC-PVDZ-JKFIT
  @DF-RHF Final Energy:  -449.52477234559296
    Total Energy =                       -449.5247723455929645
  //            Monomer A HF           //
    Molecular point group: c1
  Multiplicity = 1
  Basis Set: AUG-CC-PVDZ
    Blend: AUG-CC-PVDZ
  Basis Set: (AUG-CC-PVDZ AUX)
    Blend: AUG-CC-PVDZ-JKFIT
  @DF-RHF Final Energy:  -224.76233952678800
    Total Energy =                       -224.7623395267879971
  //            Monomer B HF           //
    Molecular point group: c1

    Geometry (in Bohr), charge = 0, multiplicity = 1:

       Center              X                  Y                   Z               Mass
    ------------   -----------------  -----------------  -----------------  -----------------
      Gh(N)           6.279812100000    -4.253033720000     0.193138650000    14.003074004430
      Gh(N)           6.068707770000    -2.281256970000     1.805443170000    14.003074004430
      Gh(H)           3.668711560000    -5.646289410000    -1.966840010000     1.007825032230
      Gh(H)           0.690345210000    -2.375456940000    -0.428642360000     1.007825032230
      Gh(H)           3.359174420000     0.176506010000     3.092650170000     1.007825032230
      Gh(H)           7.352667820000    -1.994613110000     2.906807020000     1.007825032230
      Gh(C)           3.779525860000    -1.215084530000     1.768581720000    12.000000000000
      Gh(C)           2.382429980000    -2.555055380000     0.046076810000    12.000000000000
      Gh(C)           4.017714680000    -4.384104900000    -0.887618630000    12.000000000000
         N          -20.417147100000    -2.293388780000   -20.740453970000    14.003074004430
         N          -20.298284830000    -4.331295820000   -19.203280250000    14.003074004430
         H          -17.743984360000     0.107521180000   -21.458484320000     1.007825032230
         H          -14.849347800000    -2.335017560000   -18.703346820000     1.007825032230
         H          -17.785771870000    -6.048066570000   -16.798710510000     1.007825032230
         H          -21.760693050000    -5.141272880000   -18.817514930000     1.007825032230
         C          -18.015448430000    -4.661471490000   -18.174231400000    12.000000000000
         C          -16.532456000000    -2.731799270000   -19.064153870000    12.000000000000
         C          -18.093761330000    -1.346631460000   -20.655851820000    12.000000000000

  Charge       = 0
  Multiplicity = 1
  Basis Set: AUG-CC-PVDZ
    Blend: AUG-CC-PVDZ
  Basis Set: (AUG-CC-PVDZ AUX)
    Blend: AUG-CC-PVDZ-JKFIT

    Orbital Energies [Eh]
    ---------------------

    Doubly Occupied:

       1A    -15.636233     2A    -15.592291     3A    -11.279903
       4A    -11.237759     5A    -11.209884     6A     -1.387001
       7A     -1.121894     8A     -1.066928     9A     -0.872759
      10A     -0.837039    11A     -0.757272    12A     -0.645745
      13A     -0.620828    14A     -0.609177    15A     -0.583905
      16A     -0.461413    17A     -0.370715    18A     -0.346055

  @DF-RHF Final Energy:  -224.76243506616356

   => Energetics <=

    Nuclear Repulsion Energy =            166.6286027726916359
    One-Electron Energy =                -633.5084734474502284
    Two-Electron Energy =                 242.1174356085950308
    Total Energy =                       -224.7624350661635617

  Dipole Moment: [D]
     X:     0.7394      Y:    -1.4336      Z:     1.7871     Total:     2.4074

    SAPT Results
  --------------------------------------------------------------------------------------------------------
    Electrostatics                  0.00219566 [mEh]       0.00137780 [kcal/mol]       0.00576470 [kJ/mol]
      Elst10,r                      0.00219566 [mEh]       0.00137780 [kcal/mol]       0.00576470 [kJ/mol]

    Exchange                        0.00000003 [mEh]       0.00000002 [kcal/mol]       0.00000007 [kJ/mol]
      Exch10                        0.00000003 [mEh]       0.00000002 [kcal/mol]       0.00000007 [kJ/mol]
      Exch10(S^2)                   0.00000003 [mEh]       0.00000002 [kcal/mol]       0.00000007 [kJ/mol]

    Induction                       0.00005167 [mEh]       0.00003242 [kcal/mol]       0.00013566 [kJ/mol]
      Ind20,r                      -0.00006054 [mEh]      -0.00003799 [kcal/mol]      -0.00015896 [kJ/mol]
      Exch-Ind20,r                  0.00000004 [mEh]       0.00000002 [kcal/mol]       0.00000010 [kJ/mol]
      delta HF,r (2)                0.00011218 [mEh]       0.00007039 [kcal/mol]       0.00029452 [kJ/mol]

    Dispersion                     -0.00164055 [mEh]      -0.00102946 [kcal/mol]      -0.00430727 [kJ/mol]
      Disp20                       -0.00164055 [mEh]      -0.00102946 [kcal/mol]      -0.00430727 [kJ/mol]
      Exch-Disp20                   0.00000000 [mEh]       0.00000000 [kcal/mol]       0.00000000 [kJ/mol]
      Disp20 (SS)                  -0.00082028 [mEh]      -0.00051473 [kcal/mol]      -0.00215364 [kJ/mol]
      Disp20 (OS)                  -0.00082028 [mEh]      -0.00051473 [kcal/mol]      -0.00215364 [kJ/mol]
      Exch-Disp20 (SS)              0.00000000 [mEh]       0.00000000 [kcal/mol]       0.00000000 [kJ/mol]
      Exch-Disp20 (OS)              0.00000000 [mEh]       0.00000000 [kcal/mol]       0.00000000 [kJ/mol]

  Total HF                          0.00224736 [mEh]       0.00141024 [kcal/mol]       0.00590044 [kJ/mol]
  Total SAPT0                       0.00060681 [mEh]       0.00038078 [kcal/mol]       0.00159317 [kJ/mol]

  Special recipe for scaled SAPT0 (see Manual):
    Electrostatics sSAPT0           0.00219566 [mEh]       0.00137780 [kcal/mol]       0.00576470 [kJ/mol]
    Exchange sSAPT0                 0.00000003 [mEh]       0.00000002 [kcal/mol]       0.00000007 [kJ/mol]
    Induction sSAPT0                0.00005167 [mEh]       0.00003242 [kcal/mol]       0.00013566 [kJ/mol]
    Dispersion sSAPT0              -0.00164055 [mEh]      -0.00102946 [kcal/mol]      -0.00430727 [kJ/mol]
  Total sSAPT0                      0.00060681 [mEh]       0.00038078 [kcal/mol]       0.00159317 [kJ/mol]
  --------------------------------------------------------------------------------------------------------

*** Psi4 exiting successfully. Buy a developer a beer!
