                               Psi4 1.4rc3

  ==> Input File <==

--------------------------------------------------------------------------
# PSI4 file produced by CrystaLattE

# Generated from:               pyrazole.xyz
# Psithon input for N-mer:      2mer-0+21
# Number of atoms per monomer:  [9, 9]
# Number of replicas:           1
# COM priority:                 2.087445161021e-04
# Minimum COM separations:      8.921
# Separation priority:          9.054664905959e-04
# Minimum monomer separations:  5.470
# Cutoff priority:              8.759846785093e-05
# Nuclear repulsion energy:     411.00158605695094

memory 7 GB

molecule Dimer_0_21 {
  N            6.27981210      -4.25303372       0.19313865
  N            6.06870777      -2.28125697       1.80544317
  H            3.66871156      -5.64628941      -1.96684001
  H            0.69034521      -2.37545694      -0.42864236
  H            3.35917442       0.17650601       3.09265017
  H            7.35266782      -1.99461311       2.90680702
  C            3.77952586      -1.21508453       1.76858172
  C            2.38242998      -2.55505538       0.04607681
  C            4.01771468      -4.38410490      -0.88761863
--
  N           -4.94029013      -9.49302627     -14.34089645
  N           -4.82142787      -7.45511923     -12.80372273
  H           -2.26712739     -11.89393623     -15.05892680
  H            0.62750917      -9.45139749     -12.30378930
  H           -2.30891491      -5.73834848     -10.39915299
  H           -6.28383608      -6.64514217     -12.41795740
  C           -2.53859146      -7.12494356     -11.77467388
  C           -1.05559903      -9.05461578     -12.66459635
  C           -2.61690436     -10.43978359     -14.25629430
units = au
no_com
no_reorient
}

set {
  e_convergence 10
  d_convergence 10
  scf_type df
  mp2_type df
  cc_type df
  freeze_core true
}

energy('sapt0/aug-cc-pvdz')

--------------------------------------------------------------------------

  //              Dimer HF             //
    Molecular point group: c1
  Charge       = 0
  Multiplicity = 1
  Basis Set: AUG-CC-PVDZ
    Blend: AUG-CC-PVDZ
  Basis Set: (AUG-CC-PVDZ AUX)
    Blend: AUG-CC-PVDZ-JKFIT
  @DF-RHF Final Energy:  -449.52478246191640
    Total Energy =                       -449.5247824619164021
  //            Monomer A HF           //
    Molecular point group: c1
  Multiplicity = 1
  Basis Set: AUG-CC-PVDZ
    Blend: AUG-CC-PVDZ
  Basis Set: (AUG-CC-PVDZ AUX)
    Blend: AUG-CC-PVDZ-JKFIT
  @DF-RHF Final Energy:  -224.76237190166589
    Total Energy =                       -224.7623719016658868
  //            Monomer B HF           //
    Molecular point group: c1

    Geometry (in Bohr), charge = 0, multiplicity = 1:

       Center              X                  Y                   Z               Mass
    ------------   -----------------  -----------------  -----------------  -----------------
      Gh(N)           6.279812100000    -4.253033720000     0.193138650000    14.003074004430
      Gh(N)           6.068707770000    -2.281256970000     1.805443170000    14.003074004430
      Gh(H)           3.668711560000    -5.646289410000    -1.966840010000     1.007825032230
      Gh(H)           0.690345210000    -2.375456940000    -0.428642360000     1.007825032230
      Gh(H)           3.359174420000     0.176506010000     3.092650170000     1.007825032230
      Gh(H)           7.352667820000    -1.994613110000     2.906807020000     1.007825032230
      Gh(C)           3.779525860000    -1.215084530000     1.768581720000    12.000000000000
      Gh(C)           2.382429980000    -2.555055380000     0.046076810000    12.000000000000
      Gh(C)           4.017714680000    -4.384104900000    -0.887618630000    12.000000000000
         N           -4.940290130000    -9.493026270000   -14.340896450000    14.003074004430
         N           -4.821427870000    -7.455119230000   -12.803722730000    14.003074004430
         H           -2.267127390000   -11.893936230000   -15.058926800000     1.007825032230
         H            0.627509170000    -9.451397490000   -12.303789300000     1.007825032230
         H           -2.308914910000    -5.738348480000   -10.399152990000     1.007825032230
         H           -6.283836080000    -6.645142170000   -12.417957400000     1.007825032230
         C           -2.538591460000    -7.124943560000   -11.774673880000    12.000000000000
         C           -1.055599030000    -9.054615780000   -12.664596350000    12.000000000000
         C           -2.616904360000   -10.439783590000   -14.256294300000    12.000000000000

  Charge       = 0
  Multiplicity = 1
  Basis Set: AUG-CC-PVDZ
    Blend: AUG-CC-PVDZ
  Basis Set: (AUG-CC-PVDZ AUX)
    Blend: AUG-CC-PVDZ-JKFIT

    Orbital Energies [Eh]
    ---------------------

    Doubly Occupied:

       1A    -15.636238     2A    -15.592297     3A    -11.279899
       4A    -11.237759     5A    -11.209888     6A     -1.387004
       7A     -1.121898     8A     -1.066933     9A     -0.872763
      10A     -0.837043    11A     -0.757277    12A     -0.645751
      13A     -0.620834    14A     -0.609178    15A     -0.583910
      16A     -0.461418    17A     -0.370717    18A     -0.346059

  @DF-RHF Final Energy:  -224.76247021391313

   => Energetics <=

    Nuclear Repulsion Energy =            166.6286026903197808
    One-Electron Energy =                -633.5084151578190585
    Two-Electron Energy =                 242.1173422535861448
    Total Energy =                       -224.7624702139131330

  Dipole Moment: [D]
     X:     0.7404      Y:     1.4335      Z:     1.7873     Total:     2.4078

    SAPT Results
  --------------------------------------------------------------------------------------------------------
    Electrostatics                  0.06361934 [mEh]       0.03992174 [kcal/mol]       0.16703256 [kJ/mol]
      Elst10,r                      0.06361934 [mEh]       0.03992174 [kcal/mol]       0.16703256 [kJ/mol]

    Exchange                        0.00005654 [mEh]       0.00003548 [kcal/mol]       0.00014843 [kJ/mol]
      Exch10                        0.00005654 [mEh]       0.00003548 [kcal/mol]       0.00014843 [kJ/mol]
      Exch10(S^2)                   0.00005654 [mEh]       0.00003548 [kcal/mol]       0.00014843 [kJ/mol]

    Induction                      -0.00402222 [mEh]      -0.00252398 [kcal/mol]      -0.01056033 [kJ/mol]
      Ind20,r                      -0.00448287 [mEh]      -0.00281305 [kcal/mol]      -0.01176978 [kJ/mol]
      Exch-Ind20,r                  0.00005744 [mEh]       0.00003604 [kcal/mol]       0.00015080 [kJ/mol]
      delta HF,r (2)                0.00040322 [mEh]       0.00025302 [kcal/mol]       0.00105865 [kJ/mol]

    Dispersion                     -0.08331315 [mEh]      -0.05227979 [kcal/mol]      -0.21873865 [kJ/mol]
      Disp20                       -0.08332513 [mEh]      -0.05228731 [kcal/mol]      -0.21877009 [kJ/mol]
      Exch-Disp20                   0.00001198 [mEh]       0.00000752 [kcal/mol]       0.00003144 [kJ/mol]
      Disp20 (SS)                  -0.04166256 [mEh]      -0.02614365 [kcal/mol]      -0.10938505 [kJ/mol]
      Disp20 (OS)                  -0.04166256 [mEh]      -0.02614365 [kcal/mol]      -0.10938505 [kJ/mol]
      Exch-Disp20 (SS)              0.00000912 [mEh]       0.00000572 [kcal/mol]       0.00002394 [kJ/mol]
      Exch-Disp20 (OS)              0.00000286 [mEh]       0.00000179 [kcal/mol]       0.00000750 [kJ/mol]

  Total HF                          0.05965366 [mEh]       0.03743324 [kcal/mol]       0.15662067 [kJ/mol]
  Total SAPT0                      -0.02365949 [mEh]      -0.01484655 [kcal/mol]      -0.06211798 [kJ/mol]

  Special recipe for scaled SAPT0 (see Manual):
    Electrostatics sSAPT0           0.06361934 [mEh]       0.03992174 [kcal/mol]       0.16703256 [kJ/mol]
    Exchange sSAPT0                 0.00005654 [mEh]       0.00003548 [kcal/mol]       0.00014843 [kJ/mol]
    Induction sSAPT0               -0.00402222 [mEh]      -0.00252398 [kcal/mol]      -0.01056033 [kJ/mol]
    Dispersion sSAPT0              -0.08331315 [mEh]      -0.05227979 [kcal/mol]      -0.21873865 [kJ/mol]
  Total sSAPT0                     -0.02365949 [mEh]      -0.01484655 [kcal/mol]      -0.06211798 [kJ/mol]
  --------------------------------------------------------------------------------------------------------

*** Psi4 exiting successfully. Buy a developer a beer!
