                               Psi4 1.4rc3

  ==> Input File <==

--------------------------------------------------------------------------
# PSI4 file produced by CrystaLattE

# Generated from:               pyrazole.xyz
# Psithon input for N-mer:      2mer-0+388
# Number of atoms per monomer:  [9, 9]
# Number of replicas:           1
# COM priority:                 2.266200315860e-05
# Minimum COM separations:      18.700
# Separation priority:          4.455789969241e-05
# Minimum monomer separations:  14.927
# Cutoff priority:              1.579669678373e-06
# Nuclear repulsion energy:     369.9562064703857

memory 7 GB

molecule Dimer_0_388 {
  N            6.27981210      -4.25303372       0.19313865
  N            6.06870777      -2.28125697       1.80544317
  H            3.66871156      -5.64628941      -1.96684001
  H            0.69034521      -2.37545694      -0.42864236
  H            3.35917442       0.17650601       3.09265017
  H            7.35266782      -1.99461311       2.90680702
  C            3.77952586      -1.21508453       1.76858172
  C            2.38242998      -2.55505538       0.04607681
  C            4.01771468      -4.38410490      -0.88761863
--
  N           33.75185229       9.60054745      14.38697326
  N           33.87071455       7.56264041      12.84979954
  H           36.42501503      12.00145742      15.10500361
  H           39.31965158       9.55891867      12.34986611
  H           36.38322751       5.84586966      10.44522980
  H           32.40830634       6.75266336      12.46403422
  C           36.15355095       7.23246474      11.82075069
  C           37.63654339       9.16213696      12.71067316
  C           36.07523806      10.54730477      14.30237111
units = au
no_com
no_reorient
}

set {
  e_convergence 10
  d_convergence 10
  scf_type df
  mp2_type df
  cc_type df
  freeze_core true
}

energy('sapt0/aug-cc-pvdz')

--------------------------------------------------------------------------

  //              Dimer HF             //
    Molecular point group: c1
  Charge       = 0
  Multiplicity = 1
  Basis Set: AUG-CC-PVDZ
    Blend: AUG-CC-PVDZ
  Basis Set: (AUG-CC-PVDZ AUX)
    Blend: AUG-CC-PVDZ-JKFIT
  @DF-RHF Final Energy:  -449.52479905649182
    Total Energy =                       -449.5247990564918155
  //            Monomer A HF           //
    Molecular point group: c1
  Multiplicity = 1
  Basis Set: AUG-CC-PVDZ
    Blend: AUG-CC-PVDZ
  Basis Set: (AUG-CC-PVDZ AUX)
    Blend: AUG-CC-PVDZ-JKFIT
  @DF-RHF Final Energy:  -224.76233952256723
    Total Energy =                       -224.7623395225672311
  //            Monomer B HF           //
    Molecular point group: c1

    Geometry (in Bohr), charge = 0, multiplicity = 1:

       Center              X                  Y                   Z               Mass
    ------------   -----------------  -----------------  -----------------  -----------------
      Gh(N)           6.279812100000    -4.253033720000     0.193138650000    14.003074004430
      Gh(N)           6.068707770000    -2.281256970000     1.805443170000    14.003074004430
      Gh(H)           3.668711560000    -5.646289410000    -1.966840010000     1.007825032230
      Gh(H)           0.690345210000    -2.375456940000    -0.428642360000     1.007825032230
      Gh(H)           3.359174420000     0.176506010000     3.092650170000     1.007825032230
      Gh(H)           7.352667820000    -1.994613110000     2.906807020000     1.007825032230
      Gh(C)           3.779525860000    -1.215084530000     1.768581720000    12.000000000000
      Gh(C)           2.382429980000    -2.555055380000     0.046076810000    12.000000000000
      Gh(C)           4.017714680000    -4.384104900000    -0.887618630000    12.000000000000
         N           33.751852290000     9.600547450000    14.386973260000    14.003074004430
         N           33.870714550000     7.562640410000    12.849799540000    14.003074004430
         H           36.425015030000    12.001457420000    15.105003610000     1.007825032230
         H           39.319651580000     9.558918670000    12.349866110000     1.007825032230
         H           36.383227510000     5.845869660000    10.445229800000     1.007825032230
         H           32.408306340000     6.752663360000    12.464034220000     1.007825032230
         C           36.153550950000     7.232464740000    11.820750690000    12.000000000000
         C           37.636543390000     9.162136960000    12.710673160000    12.000000000000
         C           36.075238060000    10.547304770000    14.302371110000    12.000000000000

  Charge       = 0
  Multiplicity = 1
  Basis Set: AUG-CC-PVDZ
    Blend: AUG-CC-PVDZ
  Basis Set: (AUG-CC-PVDZ AUX)
    Blend: AUG-CC-PVDZ-JKFIT

    Orbital Energies [Eh]
    ---------------------

    Doubly Occupied:

       1A    -15.636233     2A    -15.592291     3A    -11.279903
       4A    -11.237759     5A    -11.209884     6A     -1.387001
       7A     -1.121894     8A     -1.066928     9A     -0.872759
      10A     -0.837039    11A     -0.757272    12A     -0.645745
      13A     -0.620828    14A     -0.609177    15A     -0.583905
      16A     -0.461413    17A     -0.370715    18A     -0.346055

  @DF-RHF Final Energy:  -224.76243506159582

   => Energetics <=

    Nuclear Repulsion Energy =            166.6286027588514287
    One-Electron Energy =                -633.5084732962527596
    Two-Electron Energy =                 242.1174354758054790
    Total Energy =                       -224.7624350615958235

  Dipole Moment: [D]
     X:     0.7394      Y:    -1.4336      Z:    -1.7871     Total:     2.4074

    SAPT Results
  --------------------------------------------------------------------------------------------------------
    Electrostatics                 -0.02447237 [mEh]      -0.01535664 [kcal/mol]      -0.06425219 [kJ/mol]
      Elst10,r                     -0.02447237 [mEh]      -0.01535664 [kcal/mol]      -0.06425219 [kJ/mol]

    Exchange                        0.00000000 [mEh]       0.00000000 [kcal/mol]       0.00000000 [kJ/mol]
      Exch10                        0.00000000 [mEh]       0.00000000 [kcal/mol]       0.00000000 [kJ/mol]
      Exch10(S^2)                   0.00000000 [mEh]       0.00000000 [kcal/mol]       0.00000000 [kJ/mol]

    Induction                       0.00000004 [mEh]       0.00000002 [kcal/mol]       0.00000010 [kJ/mol]
      Ind20,r                      -0.00004851 [mEh]      -0.00003044 [kcal/mol]      -0.00012737 [kJ/mol]
      Exch-Ind20,r                  0.00000000 [mEh]       0.00000000 [kcal/mol]       0.00000000 [kJ/mol]
      delta HF,r (2)                0.00004855 [mEh]       0.00003047 [kcal/mol]       0.00012747 [kJ/mol]

    Dispersion                     -0.00064388 [mEh]      -0.00040404 [kcal/mol]      -0.00169052 [kJ/mol]
      Disp20                       -0.00064388 [mEh]      -0.00040404 [kcal/mol]      -0.00169052 [kJ/mol]
      Exch-Disp20                   0.00000000 [mEh]       0.00000000 [kcal/mol]       0.00000000 [kJ/mol]
      Disp20 (SS)                  -0.00032194 [mEh]      -0.00020202 [kcal/mol]      -0.00084526 [kJ/mol]
      Disp20 (OS)                  -0.00032194 [mEh]      -0.00020202 [kcal/mol]      -0.00084526 [kJ/mol]
      Exch-Disp20 (SS)              0.00000000 [mEh]       0.00000000 [kcal/mol]       0.00000000 [kJ/mol]
      Exch-Disp20 (OS)              0.00000000 [mEh]       0.00000000 [kcal/mol]       0.00000000 [kJ/mol]

  Total HF                         -0.02447233 [mEh]      -0.01535662 [kcal/mol]      -0.06425209 [kJ/mol]
  Total SAPT0                      -0.02511621 [mEh]      -0.01576066 [kcal/mol]      -0.06594261 [kJ/mol]

  Special recipe for scaled SAPT0 (see Manual):
    Electrostatics sSAPT0          -0.02447237 [mEh]      -0.01535664 [kcal/mol]      -0.06425219 [kJ/mol]
    Exchange sSAPT0                 0.00000000 [mEh]       0.00000000 [kcal/mol]       0.00000000 [kJ/mol]
    Induction sSAPT0                0.00000004 [mEh]       0.00000002 [kcal/mol]       0.00000010 [kJ/mol]
    Dispersion sSAPT0              -0.00064388 [mEh]      -0.00040404 [kcal/mol]      -0.00169052 [kJ/mol]
  Total sSAPT0                     -0.02511621 [mEh]      -0.01576066 [kcal/mol]      -0.06594261 [kJ/mol]
  --------------------------------------------------------------------------------------------------------

*** Psi4 exiting successfully. Buy a developer a beer!
