                               Psi4 1.4rc3

  ==> Input File <==

--------------------------------------------------------------------------
# PSI4 file produced by CrystaLattE

# Generated from:               pyrazole.xyz
# Psithon input for N-mer:      2mer-0+261
# Number of atoms per monomer:  [9, 9]
# Number of replicas:           2
# COM priority:                 2.123332894259e-05
# Minimum COM separations:      19.110
# Separation priority:          3.307108649367e-05
# Minimum monomer separations:  16.486
# Cutoff priority:              1.061527584783e-06
# Nuclear repulsion energy:     369.0810478319314

memory 7 GB

molecule Dimer_0_261 {
  N            6.27981210      -4.25303372       0.19313865
  N            6.06870777      -2.28125697       1.80544317
  H            3.66871156      -5.64628941      -1.96684001
  H            0.69034521      -2.37545694      -0.42864236
  H            3.35917442       0.17650601       3.09265017
  H            7.35266782      -1.99461311       2.90680702
  C            3.77952586      -1.21508453       1.76858172
  C            2.38242998      -2.55505538       0.04607681
  C            4.01771468      -4.38410490      -0.88761863
--
  N           -1.45861638       7.64090252     -32.14484945
  N           -1.66972071       9.61267926     -33.75715397
  H           -4.06971692       6.24764682     -29.98487080
  H           -7.04808328       9.51847929     -31.52306844
  H           -4.37925406      12.07044225     -35.04436097
  H           -0.38576066       9.89932313     -34.85851782
  C           -3.95890263      10.67885171     -33.72029252
  C           -5.35599851       9.33888085     -31.99778762
  C           -3.72071380       7.50983134     -31.06409218
units = au
no_com
no_reorient
}

set {
  e_convergence 10
  d_convergence 10
  scf_type df
  mp2_type df
  cc_type df
  freeze_core true
}

energy('sapt0/aug-cc-pvdz')

--------------------------------------------------------------------------

  //              Dimer HF             //
    Molecular point group: c1
  Charge       = 0
  Multiplicity = 1
  Basis Set: AUG-CC-PVDZ
    Blend: AUG-CC-PVDZ
  Basis Set: (AUG-CC-PVDZ AUX)
    Blend: AUG-CC-PVDZ-JKFIT
  @DF-RHF Final Energy:  -449.52466084680310
    Total Energy =                       -449.5246608468031582
  //            Monomer A HF           //
    Molecular point group: c1
  Multiplicity = 1
  Basis Set: AUG-CC-PVDZ
    Blend: AUG-CC-PVDZ
  Basis Set: (AUG-CC-PVDZ AUX)
    Blend: AUG-CC-PVDZ-JKFIT
  @DF-RHF Final Energy:  -224.76233952203677
    Total Energy =                       -224.7623395220367684
  //            Monomer B HF           //
    Molecular point group: c1

    Geometry (in Bohr), charge = 0, multiplicity = 1:

       Center              X                  Y                   Z               Mass
    ------------   -----------------  -----------------  -----------------  -----------------
      Gh(N)           6.279812100000    -4.253033720000     0.193138650000    14.003074004430
      Gh(N)           6.068707770000    -2.281256970000     1.805443170000    14.003074004430
      Gh(H)           3.668711560000    -5.646289410000    -1.966840010000     1.007825032230
      Gh(H)           0.690345210000    -2.375456940000    -0.428642360000     1.007825032230
      Gh(H)           3.359174420000     0.176506010000     3.092650170000     1.007825032230
      Gh(H)           7.352667820000    -1.994613110000     2.906807020000     1.007825032230
      Gh(C)           3.779525860000    -1.215084530000     1.768581720000    12.000000000000
      Gh(C)           2.382429980000    -2.555055380000     0.046076810000    12.000000000000
      Gh(C)           4.017714680000    -4.384104900000    -0.887618630000    12.000000000000
         N           -1.458616380000     7.640902520000   -32.144849450000    14.003074004430
         N           -1.669720710000     9.612679260000   -33.757153970000    14.003074004430
         H           -4.069716920000     6.247646820000   -29.984870800000     1.007825032230
         H           -7.048083280000     9.518479290000   -31.523068440000     1.007825032230
         H           -4.379254060000    12.070442250000   -35.044360970000     1.007825032230
         H           -0.385760660000     9.899323130000   -34.858517820000     1.007825032230
         C           -3.958902630000    10.678851710000   -33.720292520000    12.000000000000
         C           -5.355998510000     9.338880850000   -31.997787620000    12.000000000000
         C           -3.720713800000     7.509831340000   -31.064092180000    12.000000000000

  Charge       = 0
  Multiplicity = 1
  Basis Set: AUG-CC-PVDZ
    Blend: AUG-CC-PVDZ
  Basis Set: (AUG-CC-PVDZ AUX)
    Blend: AUG-CC-PVDZ-JKFIT

    Orbital Energies [Eh]
    ---------------------

    Doubly Occupied:

       1A    -15.636223     2A    -15.592313     3A    -11.279894
       4A    -11.237784     5A    -11.209891     6A     -1.386922
       7A     -1.121901     8A     -1.066898     9A     -0.872768
      10A     -0.837061    11A     -0.757292    12A     -0.645746
      13A     -0.620834    14A     -0.609140    15A     -0.583920
      16A     -0.461404    17A     -0.370721    18A     -0.346048

  @DF-RHF Final Energy:  -224.76233952429124

   => Energetics <=

    Nuclear Repulsion Energy =            166.6240564366854073
    One-Electron Energy =                -633.4992733690902469
    Two-Electron Energy =                 242.1128774081136044
    Total Energy =                       -224.7623395242912352

  Dipole Moment: [D]
     X:    -1.0235      Y:     1.6055      Z:    -1.4733     Total:     2.4075

    SAPT Results
  --------------------------------------------------------------------------------------------------------
    Electrostatics                  0.01815328 [mEh]       0.01139135 [kcal/mol]       0.04766142 [kJ/mol]
      Elst10,r                      0.01815328 [mEh]       0.01139135 [kcal/mol]       0.04766142 [kJ/mol]

    Exchange                        0.00000000 [mEh]       0.00000000 [kcal/mol]       0.00000000 [kJ/mol]
      Exch10                        0.00000000 [mEh]       0.00000000 [kcal/mol]       0.00000000 [kJ/mol]
      Exch10(S^2)                   0.00000000 [mEh]       0.00000000 [kcal/mol]       0.00000000 [kJ/mol]

    Induction                       0.00004625 [mEh]       0.00002902 [kcal/mol]       0.00012143 [kJ/mol]
      Ind20,r                      -0.00003220 [mEh]      -0.00002021 [kcal/mol]      -0.00008454 [kJ/mol]
      Exch-Ind20,r                  0.00000000 [mEh]       0.00000000 [kcal/mol]       0.00000000 [kJ/mol]
      delta HF,r (2)                0.00007845 [mEh]       0.00004923 [kcal/mol]       0.00020597 [kJ/mol]

    Dispersion                     -0.00052328 [mEh]      -0.00032836 [kcal/mol]      -0.00137387 [kJ/mol]
      Disp20                       -0.00052328 [mEh]      -0.00032836 [kcal/mol]      -0.00137387 [kJ/mol]
      Exch-Disp20                   0.00000000 [mEh]       0.00000000 [kcal/mol]       0.00000000 [kJ/mol]
      Disp20 (SS)                  -0.00026164 [mEh]      -0.00016418 [kcal/mol]      -0.00068693 [kJ/mol]
      Disp20 (OS)                  -0.00026164 [mEh]      -0.00016418 [kcal/mol]      -0.00068693 [kJ/mol]
      Exch-Disp20 (SS)              0.00000000 [mEh]       0.00000000 [kcal/mol]       0.00000000 [kJ/mol]
      Exch-Disp20 (OS)              0.00000000 [mEh]       0.00000000 [kcal/mol]       0.00000000 [kJ/mol]

  Total HF                          0.01819952 [mEh]       0.01142037 [kcal/mol]       0.04778285 [kJ/mol]
  Total SAPT0                       0.01767625 [mEh]       0.01109201 [kcal/mol]       0.04640898 [kJ/mol]

  Special recipe for scaled SAPT0 (see Manual):
    Electrostatics sSAPT0           0.01815328 [mEh]       0.01139135 [kcal/mol]       0.04766142 [kJ/mol]
    Exchange sSAPT0                 0.00000000 [mEh]       0.00000000 [kcal/mol]       0.00000000 [kJ/mol]
    Induction sSAPT0                0.00004625 [mEh]       0.00002902 [kcal/mol]       0.00012143 [kJ/mol]
    Dispersion sSAPT0              -0.00052328 [mEh]      -0.00032836 [kcal/mol]      -0.00137387 [kJ/mol]
  Total sSAPT0                      0.01767625 [mEh]       0.01109201 [kcal/mol]       0.04640898 [kJ/mol]
  --------------------------------------------------------------------------------------------------------

*** Psi4 exiting successfully. Buy a developer a beer!
