                               Psi4 1.4rc3

  ==> Input File <==

--------------------------------------------------------------------------
# PSI4 file produced by CrystaLattE

# Generated from:               pyrazole.xyz
# Psithon input for N-mer:      2mer-0+371
# Number of atoms per monomer:  [9, 9]
# Number of replicas:           2
# COM priority:                 1.791323007902e-05
# Minimum COM separations:      20.224
# Separation priority:          3.289500567308e-05
# Minimum monomer separations:  16.515
# Cutoff priority:              1.053998406238e-06
# Nuclear repulsion energy:     367.23341672521656

memory 7 GB

molecule Dimer_0_371 {
  N            6.27981210      -4.25303372       0.19313865
  N            6.06870777      -2.28125697       1.80544317
  H            3.66871156      -5.64628941      -1.96684001
  H            0.69034521      -2.37545694      -0.42864236
  H            3.35917442       0.17650601       3.09265017
  H            7.35266782      -1.99461311       2.90680702
  C            3.77952586      -1.21508453       1.76858172
  C            2.38242998      -2.55505538       0.04607681
  C            4.01771468      -4.38410490      -0.88761863
--
  N           -9.19704487     -28.04090619     -25.40509145
  N           -9.40814920     -26.06912944     -23.79278693
  H          -11.80814541     -29.43416188     -27.56507010
  H          -14.78651176     -26.16332941     -26.02687246
  H          -12.11768255     -23.61136645     -22.50557993
  H           -8.12418914     -25.78248557     -22.69142308
  C          -11.69733111     -25.00295699     -23.82964838
  C          -13.09442699     -26.34292785     -25.55215328
  C          -11.45914228     -28.17197736     -26.48584872
units = au
no_com
no_reorient
}

set {
  e_convergence 10
  d_convergence 10
  scf_type df
  mp2_type df
  cc_type df
  freeze_core true
}

energy('sapt0/aug-cc-pvdz')

--------------------------------------------------------------------------

  //              Dimer HF             //
    Molecular point group: c1
  Charge       = 0
  Multiplicity = 1
  Basis Set: AUG-CC-PVDZ
    Blend: AUG-CC-PVDZ
  Basis Set: (AUG-CC-PVDZ AUX)
    Blend: AUG-CC-PVDZ-JKFIT
  @DF-RHF Final Energy:  -449.52468016212975
    Total Energy =                       -449.5246801621298118
  //            Monomer A HF           //
    Molecular point group: c1
  Multiplicity = 1
  Basis Set: AUG-CC-PVDZ
    Blend: AUG-CC-PVDZ
  Basis Set: (AUG-CC-PVDZ AUX)
    Blend: AUG-CC-PVDZ-JKFIT
  @DF-RHF Final Energy:  -224.76233952081870
    Total Energy =                       -224.7623395208186992
  //            Monomer B HF           //
    Molecular point group: c1

    Geometry (in Bohr), charge = 0, multiplicity = 1:

       Center              X                  Y                   Z               Mass
    ------------   -----------------  -----------------  -----------------  -----------------
      Gh(N)           6.279812100000    -4.253033720000     0.193138650000    14.003074004430
      Gh(N)           6.068707770000    -2.281256970000     1.805443170000    14.003074004430
      Gh(H)           3.668711560000    -5.646289410000    -1.966840010000     1.007825032230
      Gh(H)           0.690345210000    -2.375456940000    -0.428642360000     1.007825032230
      Gh(H)           3.359174420000     0.176506010000     3.092650170000     1.007825032230
      Gh(H)           7.352667820000    -1.994613110000     2.906807020000     1.007825032230
      Gh(C)           3.779525860000    -1.215084530000     1.768581720000    12.000000000000
      Gh(C)           2.382429980000    -2.555055380000     0.046076810000    12.000000000000
      Gh(C)           4.017714680000    -4.384104900000    -0.887618630000    12.000000000000
         N           -9.197044870000   -28.040906190000   -25.405091450000    14.003074004430
         N           -9.408149200000   -26.069129440000   -23.792786930000    14.003074004430
         H          -11.808145410000   -29.434161880000   -27.565070100000     1.007825032230
         H          -14.786511760000   -26.163329410000   -26.026872460000     1.007825032230
         H          -12.117682550000   -23.611366450000   -22.505579930000     1.007825032230
         H           -8.124189140000   -25.782485570000   -22.691423080000     1.007825032230
         C          -11.697331110000   -25.002956990000   -23.829648380000    12.000000000000
         C          -13.094426990000   -26.342927850000   -25.552153280000    12.000000000000
         C          -11.459142280000   -28.171977360000   -26.485848720000    12.000000000000

  Charge       = 0
  Multiplicity = 1
  Basis Set: AUG-CC-PVDZ
    Blend: AUG-CC-PVDZ
  Basis Set: (AUG-CC-PVDZ AUX)
    Blend: AUG-CC-PVDZ-JKFIT

    Orbital Energies [Eh]
    ---------------------

    Doubly Occupied:

       1A    -15.636223     2A    -15.592313     3A    -11.279894
       4A    -11.237784     5A    -11.209891     6A     -1.386922
       7A     -1.121901     8A     -1.066898     9A     -0.872768
      10A     -0.837061    11A     -0.757292    12A     -0.645746
      13A     -0.620834    14A     -0.609140    15A     -0.583920
      16A     -0.461404    17A     -0.370721    18A     -0.346048

  @DF-RHF Final Energy:  -224.76233952512715

   => Energetics <=

    Nuclear Repulsion Energy =            166.6240565227666934
    One-Electron Energy =                -633.4992735481017689
    Two-Electron Energy =                 242.1128775002079294
    Total Energy =                       -224.7623395251271461

  Dipole Moment: [D]
     X:    -1.0235      Y:     1.6055      Z:     1.4733     Total:     2.4075

    SAPT Results
  --------------------------------------------------------------------------------------------------------
    Electrostatics                 -0.00112954 [mEh]      -0.00070880 [kcal/mol]      -0.00296560 [kJ/mol]
      Elst10,r                     -0.00112954 [mEh]      -0.00070880 [kcal/mol]      -0.00296560 [kJ/mol]

    Exchange                        0.00000000 [mEh]       0.00000000 [kcal/mol]       0.00000000 [kJ/mol]
      Exch10                        0.00000000 [mEh]       0.00000000 [kcal/mol]       0.00000000 [kJ/mol]
      Exch10(S^2)                   0.00000000 [mEh]       0.00000000 [kcal/mol]       0.00000000 [kJ/mol]

    Induction                       0.00001335 [mEh]       0.00000838 [kcal/mol]       0.00003506 [kJ/mol]
      Ind20,r                      -0.00003774 [mEh]      -0.00002368 [kcal/mol]      -0.00009909 [kJ/mol]
      Exch-Ind20,r                  0.00000000 [mEh]       0.00000000 [kcal/mol]       0.00000000 [kJ/mol]
      delta HF,r (2)                0.00005110 [mEh]       0.00003206 [kcal/mol]       0.00013416 [kJ/mol]

    Dispersion                     -0.00043395 [mEh]      -0.00027231 [kcal/mol]      -0.00113934 [kJ/mol]
      Disp20                       -0.00043395 [mEh]      -0.00027231 [kcal/mol]      -0.00113934 [kJ/mol]
      Exch-Disp20                   0.00000000 [mEh]       0.00000000 [kcal/mol]       0.00000000 [kJ/mol]
      Disp20 (SS)                  -0.00021698 [mEh]      -0.00013615 [kcal/mol]      -0.00056967 [kJ/mol]
      Disp20 (OS)                  -0.00021698 [mEh]      -0.00013615 [kcal/mol]      -0.00056967 [kJ/mol]
      Exch-Disp20 (SS)              0.00000000 [mEh]       0.00000000 [kcal/mol]       0.00000000 [kJ/mol]
      Exch-Disp20 (OS)              0.00000000 [mEh]       0.00000000 [kcal/mol]       0.00000000 [kJ/mol]

  Total HF                         -0.00111618 [mEh]      -0.00070042 [kcal/mol]      -0.00293054 [kJ/mol]
  Total SAPT0                      -0.00155013 [mEh]      -0.00097272 [kcal/mol]      -0.00406988 [kJ/mol]

  Special recipe for scaled SAPT0 (see Manual):
    Electrostatics sSAPT0          -0.00112954 [mEh]      -0.00070880 [kcal/mol]      -0.00296560 [kJ/mol]
    Exchange sSAPT0                 0.00000000 [mEh]       0.00000000 [kcal/mol]       0.00000000 [kJ/mol]
    Induction sSAPT0                0.00001335 [mEh]       0.00000838 [kcal/mol]       0.00003506 [kJ/mol]
    Dispersion sSAPT0              -0.00043395 [mEh]      -0.00027231 [kcal/mol]      -0.00113934 [kJ/mol]
  Total sSAPT0                     -0.00155013 [mEh]      -0.00097272 [kcal/mol]      -0.00406988 [kJ/mol]
  --------------------------------------------------------------------------------------------------------

*** Psi4 exiting successfully. Buy a developer a beer!
