                               Psi4 1.4rc3

  ==> Input File <==

--------------------------------------------------------------------------
# PSI4 file produced by CrystaLattE

# Generated from:               pyrazole.xyz
# Psithon input for N-mer:      2mer-0+63
# Number of atoms per monomer:  [9, 9]
# Number of replicas:           2
# COM priority:                 1.355323885050e-04
# Minimum COM separations:      10.302
# Separation priority:          3.074647439953e-04
# Minimum monomer separations:  7.840
# Cutoff priority:              2.075202260109e-05
# Nuclear repulsion energy:     399.6950944432108

memory 7 GB

molecule Dimer_0_63 {
  N            6.27981210      -4.25303372       0.19313865
  N            6.06870777      -2.28125697       1.80544317
  H            3.66871156      -5.64628941      -1.96684001
  H            0.69034521      -2.37545694      -0.42864236
  H            3.35917442       0.17650601       3.09265017
  H            7.35266782      -1.99461311       2.90680702
  C            3.77952586      -1.21508453       1.76858172
  C            2.38242998      -2.55505538       0.04607681
  C            4.01771468      -4.38410490      -0.88761863
--
  N           -1.45861638     -19.42731757      -0.14706183
  N           -1.66972071     -21.39909431      -1.75936635
  H           -4.06971692     -18.03406187       2.01291682
  H           -7.04808328     -21.30489434       0.47471918
  H           -4.37925406     -23.85685730      -3.04657335
  H           -0.38576066     -21.68573818      -2.86073020
  C           -3.95890263     -22.46526676      -1.72250490
  C           -5.35599851     -21.12529590       0.00000000
  C           -3.72071380     -19.29624639       0.93369544
units = au
no_com
no_reorient
}

set {
  e_convergence 10
  d_convergence 10
  scf_type df
  mp2_type df
  cc_type df
  freeze_core true
}

energy('sapt0/aug-cc-pvdz')

--------------------------------------------------------------------------

  //              Dimer HF             //
    Molecular point group: c1
  Charge       = 0
  Multiplicity = 1
  Basis Set: AUG-CC-PVDZ
    Blend: AUG-CC-PVDZ
  Basis Set: (AUG-CC-PVDZ AUX)
    Blend: AUG-CC-PVDZ-JKFIT
  @DF-RHF Final Energy:  -449.52458211174519
    Total Energy =                       -449.5245821117451896
  //            Monomer A HF           //
    Molecular point group: c1
  Multiplicity = 1
  Basis Set: AUG-CC-PVDZ
    Blend: AUG-CC-PVDZ
  Basis Set: (AUG-CC-PVDZ AUX)
    Blend: AUG-CC-PVDZ-JKFIT
  @DF-RHF Final Energy:  -224.76234527739362
    Total Energy =                       -224.7623452773936208
  //            Monomer B HF           //
    Molecular point group: c1

    Geometry (in Bohr), charge = 0, multiplicity = 1:

       Center              X                  Y                   Z               Mass
    ------------   -----------------  -----------------  -----------------  -----------------
      Gh(N)           6.279812100000    -4.253033720000     0.193138650000    14.003074004430
      Gh(N)           6.068707770000    -2.281256970000     1.805443170000    14.003074004430
      Gh(H)           3.668711560000    -5.646289410000    -1.966840010000     1.007825032230
      Gh(H)           0.690345210000    -2.375456940000    -0.428642360000     1.007825032230
      Gh(H)           3.359174420000     0.176506010000     3.092650170000     1.007825032230
      Gh(H)           7.352667820000    -1.994613110000     2.906807020000     1.007825032230
      Gh(C)           3.779525860000    -1.215084530000     1.768581720000    12.000000000000
      Gh(C)           2.382429980000    -2.555055380000     0.046076810000    12.000000000000
      Gh(C)           4.017714680000    -4.384104900000    -0.887618630000    12.000000000000
         N           -1.458616380000   -19.427317570000    -0.147061830000    14.003074004430
         N           -1.669720710000   -21.399094310000    -1.759366350000    14.003074004430
         H           -4.069716920000   -18.034061870000     2.012916820000     1.007825032230
         H           -7.048083280000   -21.304894340000     0.474719180000     1.007825032230
         H           -4.379254060000   -23.856857300000    -3.046573350000     1.007825032230
         H           -0.385760660000   -21.685738180000    -2.860730200000     1.007825032230
         C           -3.958902630000   -22.465266760000    -1.722504900000    12.000000000000
         C           -5.355998510000   -21.125295900000     0.000000000000    12.000000000000
         C           -3.720713800000   -19.296246390000     0.933695440000    12.000000000000

  Charge       = 0
  Multiplicity = 1
  Basis Set: AUG-CC-PVDZ
    Blend: AUG-CC-PVDZ
  Basis Set: (AUG-CC-PVDZ AUX)
    Blend: AUG-CC-PVDZ-JKFIT

    Orbital Energies [Eh]
    ---------------------

    Doubly Occupied:

       1A    -15.636223     2A    -15.592315     3A    -11.279894
       4A    -11.237778     5A    -11.209890     6A     -1.386922
       7A     -1.121902     8A     -1.066899     9A     -0.872768
      10A     -0.837062    11A     -0.757293    12A     -0.645747
      13A     -0.620834    14A     -0.609140    15A     -0.583921
      16A     -0.461405    17A     -0.370721    18A     -0.346048

  @DF-RHF Final Energy:  -224.76234841985359

   => Energetics <=

    Nuclear Repulsion Energy =            166.6240564366854073
    One-Electron Energy =                -633.4992887518806128
    Two-Electron Energy =                 242.1128838953416107
    Total Energy =                       -224.7623484198535948

  Dipole Moment: [D]
     X:    -1.0234      Y:    -1.6055      Z:    -1.4733     Total:     2.4074

    SAPT Results
  --------------------------------------------------------------------------------------------------------
    Electrostatics                  0.11361073 [mEh]       0.07129181 [kcal/mol]       0.29828492 [kJ/mol]
      Elst10,r                      0.11361073 [mEh]       0.07129181 [kcal/mol]       0.29828492 [kJ/mol]

    Exchange                        0.00000216 [mEh]       0.00000136 [kcal/mol]       0.00000568 [kJ/mol]
      Exch10                        0.00000216 [mEh]       0.00000136 [kcal/mol]       0.00000568 [kJ/mol]
      Exch10(S^2)                   0.00000216 [mEh]       0.00000136 [kcal/mol]       0.00000568 [kJ/mol]

    Induction                      -0.00202739 [mEh]      -0.00127220 [kcal/mol]      -0.00532290 [kJ/mol]
      Ind20,r                      -0.00224816 [mEh]      -0.00141074 [kcal/mol]      -0.00590254 [kJ/mol]
      Exch-Ind20,r                  0.00000876 [mEh]       0.00000550 [kcal/mol]       0.00002301 [kJ/mol]
      delta HF,r (2)                0.00021201 [mEh]       0.00013304 [kcal/mol]       0.00055663 [kJ/mol]

    Dispersion                     -0.02419892 [mEh]      -0.01518505 [kcal/mol]      -0.06353426 [kJ/mol]
      Disp20                       -0.02419998 [mEh]      -0.01518572 [kcal/mol]      -0.06353705 [kJ/mol]
      Exch-Disp20                   0.00000106 [mEh]       0.00000067 [kcal/mol]       0.00000278 [kJ/mol]
      Disp20 (SS)                  -0.01209999 [mEh]      -0.00759286 [kcal/mol]      -0.03176852 [kJ/mol]
      Disp20 (OS)                  -0.01209999 [mEh]      -0.00759286 [kcal/mol]      -0.03176852 [kJ/mol]
      Exch-Disp20 (SS)              0.00000091 [mEh]       0.00000057 [kcal/mol]       0.00000240 [kJ/mol]
      Exch-Disp20 (OS)              0.00000015 [mEh]       0.00000009 [kcal/mol]       0.00000038 [kJ/mol]

  Total HF                          0.11158550 [mEh]       0.07002096 [kcal/mol]       0.29296770 [kJ/mol]
  Total SAPT0                       0.08738658 [mEh]       0.05483591 [kcal/mol]       0.22943343 [kJ/mol]

  Special recipe for scaled SAPT0 (see Manual):
    Electrostatics sSAPT0           0.11361073 [mEh]       0.07129181 [kcal/mol]       0.29828492 [kJ/mol]
    Exchange sSAPT0                 0.00000216 [mEh]       0.00000136 [kcal/mol]       0.00000568 [kJ/mol]
    Induction sSAPT0               -0.00202739 [mEh]      -0.00127220 [kcal/mol]      -0.00532290 [kJ/mol]
    Dispersion sSAPT0              -0.02419892 [mEh]      -0.01518505 [kcal/mol]      -0.06353426 [kJ/mol]
  Total sSAPT0                      0.08738658 [mEh]       0.05483591 [kcal/mol]       0.22943343 [kJ/mol]
  --------------------------------------------------------------------------------------------------------

*** Psi4 exiting successfully. Buy a developer a beer!
