                               Psi4 1.4rc3

  ==> Input File <==

--------------------------------------------------------------------------
# PSI4 file produced by CrystaLattE

# Generated from:               pyrazole.xyz
# Psithon input for N-mer:      2mer-0+27
# Number of atoms per monomer:  [9, 9]
# Number of replicas:           2
# COM priority:                 2.899398620472e-04
# Minimum COM separations:      7.995
# Separation priority:          8.142065310910e-04
# Minimum monomer separations:  5.667
# Cutoff priority:              7.602902870753e-05
# Nuclear repulsion energy:     418.6208330567131

memory 7 GB

molecule Dimer_0_27 {
  N            6.27981210      -4.25303372       0.19313865
  N            6.06870777      -2.28125697       1.80544317
  H            3.66871156      -5.64628941      -1.96684001
  H            0.69034521      -2.37545694      -0.42864236
  H            3.35917442       0.17650601       3.09265017
  H            7.35266782      -1.99461311       2.90680702
  C            3.77952586      -1.21508453       1.76858172
  C            2.38242998      -2.55505538       0.04607681
  C            4.01771468      -4.38410490      -0.88761863
--
  N           -1.45861638     -16.14696995       6.25249569
  N           -1.66972071     -14.17519320       4.64019117
  H           -4.06971692     -17.54022564       8.41247435
  H           -7.04808328     -14.26939318       6.87427670
  H           -4.37925406     -11.71743022       3.35298417
  H           -0.38576066     -13.88854934       3.53882732
  C           -3.95890263     -13.10902076       4.67705262
  C           -5.35599851     -14.44899162       6.39955752
  C           -3.72071380     -16.27804113       7.33325297
units = au
no_com
no_reorient
}

set {
  e_convergence 10
  d_convergence 10
  scf_type df
  mp2_type df
  cc_type df
  freeze_core true
}

energy('sapt0/aug-cc-pvdz')

--------------------------------------------------------------------------

  //              Dimer HF             //
    Molecular point group: c1
  Charge       = 0
  Multiplicity = 1
  Basis Set: AUG-CC-PVDZ
    Blend: AUG-CC-PVDZ
  Basis Set: (AUG-CC-PVDZ AUX)
    Blend: AUG-CC-PVDZ-JKFIT
  @DF-RHF Final Energy:  -449.52486196086346
    Total Energy =                       -449.5248619608635181
  //            Monomer A HF           //
    Molecular point group: c1
  Multiplicity = 1
  Basis Set: AUG-CC-PVDZ
    Blend: AUG-CC-PVDZ
  Basis Set: (AUG-CC-PVDZ AUX)
    Blend: AUG-CC-PVDZ-JKFIT
  @DF-RHF Final Energy:  -224.76238136723018
    Total Energy =                       -224.7623813672301765
  //            Monomer B HF           //
    Molecular point group: c1

    Geometry (in Bohr), charge = 0, multiplicity = 1:

       Center              X                  Y                   Z               Mass
    ------------   -----------------  -----------------  -----------------  -----------------
      Gh(N)           6.279812100000    -4.253033720000     0.193138650000    14.003074004430
      Gh(N)           6.068707770000    -2.281256970000     1.805443170000    14.003074004430
      Gh(H)           3.668711560000    -5.646289410000    -1.966840010000     1.007825032230
      Gh(H)           0.690345210000    -2.375456940000    -0.428642360000     1.007825032230
      Gh(H)           3.359174420000     0.176506010000     3.092650170000     1.007825032230
      Gh(H)           7.352667820000    -1.994613110000     2.906807020000     1.007825032230
      Gh(C)           3.779525860000    -1.215084530000     1.768581720000    12.000000000000
      Gh(C)           2.382429980000    -2.555055380000     0.046076810000    12.000000000000
      Gh(C)           4.017714680000    -4.384104900000    -0.887618630000    12.000000000000
         N           -1.458616380000   -16.146969950000     6.252495690000    14.003074004430
         N           -1.669720710000   -14.175193200000     4.640191170000    14.003074004430
         H           -4.069716920000   -17.540225640000     8.412474350000     1.007825032230
         H           -7.048083280000   -14.269393180000     6.874276700000     1.007825032230
         H           -4.379254060000   -11.717430220000     3.352984170000     1.007825032230
         H           -0.385760660000   -13.888549340000     3.538827320000     1.007825032230
         C           -3.958902630000   -13.109020760000     4.677052620000    12.000000000000
         C           -5.355998510000   -14.448991620000     6.399557520000    12.000000000000
         C           -3.720713800000   -16.278041130000     7.333252970000    12.000000000000

  Charge       = 0
  Multiplicity = 1
  Basis Set: AUG-CC-PVDZ
    Blend: AUG-CC-PVDZ
  Basis Set: (AUG-CC-PVDZ AUX)
    Blend: AUG-CC-PVDZ-JKFIT

    Orbital Energies [Eh]
    ---------------------

    Doubly Occupied:

       1A    -15.636232     2A    -15.592320     3A    -11.279884
       4A    -11.237783     5A    -11.209885     6A     -1.386920
       7A     -1.121902     8A     -1.066897     9A     -0.872769
      10A     -0.837062    11A     -0.757294    12A     -0.645746
      13A     -0.620835    14A     -0.609139    15A     -0.583921
      16A     -0.461404    17A     -0.370721    18A     -0.346047

  @DF-RHF Final Energy:  -224.76237325463484

   => Energetics <=

    Nuclear Repulsion Energy =            166.6240563307950708
    One-Electron Energy =                -633.4993370431664061
    Two-Electron Energy =                 242.1129074577365259
    Total Energy =                       -224.7623732546348378

  Dipole Moment: [D]
     X:    -1.0230      Y:     1.6058      Z:    -1.4733     Total:     2.4074

    SAPT Results
  --------------------------------------------------------------------------------------------------------
    Electrostatics                 -0.09531914 [mEh]      -0.05981366 [kcal/mol]      -0.25026036 [kJ/mol]
      Elst10,r                     -0.09531914 [mEh]      -0.05981366 [kcal/mol]      -0.25026036 [kJ/mol]

    Exchange                        0.00014653 [mEh]       0.00009195 [kcal/mol]       0.00038470 [kJ/mol]
      Exch10                        0.00014653 [mEh]       0.00009195 [kcal/mol]       0.00038470 [kJ/mol]
      Exch10(S^2)                   0.00014653 [mEh]       0.00009195 [kcal/mol]       0.00038470 [kJ/mol]

    Induction                      -0.01216639 [mEh]      -0.00763452 [kcal/mol]      -0.03194285 [kJ/mol]
      Ind20,r                      -0.01200084 [mEh]      -0.00753064 [kcal/mol]      -0.03150820 [kJ/mol]
      Exch-Ind20,r                  0.00008020 [mEh]       0.00005032 [kcal/mol]       0.00021056 [kJ/mol]
      delta HF,r (2)               -0.00024574 [mEh]      -0.00015421 [kcal/mol]      -0.00064520 [kJ/mol]

    Dispersion                     -0.11559836 [mEh]      -0.07253907 [kcal/mol]      -0.30350345 [kJ/mol]
      Disp20                       -0.11563905 [mEh]      -0.07256460 [kcal/mol]      -0.30361029 [kJ/mol]
      Exch-Disp20                   0.00004069 [mEh]       0.00002553 [kcal/mol]       0.00010684 [kJ/mol]
      Disp20 (SS)                  -0.05781953 [mEh]      -0.03628230 [kcal/mol]      -0.15180515 [kJ/mol]
      Disp20 (OS)                  -0.05781953 [mEh]      -0.03628230 [kcal/mol]      -0.15180515 [kJ/mol]
      Exch-Disp20 (SS)              0.00003057 [mEh]       0.00001918 [kcal/mol]       0.00008026 [kJ/mol]
      Exch-Disp20 (OS)              0.00001012 [mEh]       0.00000635 [kcal/mol]       0.00002658 [kJ/mol]

  Total HF                         -0.10733900 [mEh]      -0.06735624 [kcal/mol]      -0.28181850 [kJ/mol]
  Total SAPT0                      -0.22293736 [mEh]      -0.13989530 [kcal/mol]      -0.58532196 [kJ/mol]

  Special recipe for scaled SAPT0 (see Manual):
    Electrostatics sSAPT0          -0.09531914 [mEh]      -0.05981366 [kcal/mol]      -0.25026036 [kJ/mol]
    Exchange sSAPT0                 0.00014653 [mEh]       0.00009195 [kcal/mol]       0.00038470 [kJ/mol]
    Induction sSAPT0               -0.01216639 [mEh]      -0.00763452 [kcal/mol]      -0.03194285 [kJ/mol]
    Dispersion sSAPT0              -0.11559836 [mEh]      -0.07253907 [kcal/mol]      -0.30350345 [kJ/mol]
  Total sSAPT0                     -0.22293736 [mEh]      -0.13989530 [kcal/mol]      -0.58532196 [kJ/mol]
  --------------------------------------------------------------------------------------------------------

*** Psi4 exiting successfully. Buy a developer a beer!
