                               Psi4 1.4rc3

  ==> Input File <==

--------------------------------------------------------------------------
# PSI4 file produced by CrystaLattE

# Generated from:               pyrazole.xyz
# Psithon input for N-mer:      2mer-0+177
# Number of atoms per monomer:  [9, 9]
# Number of replicas:           2
# COM priority:                 4.375078151472e-05
# Minimum COM separations:      15.018
# Separation priority:          7.381479957159e-05
# Minimum monomer separations:  12.615
# Cutoff priority:              3.096406186406e-06
# Nuclear repulsion energy:     378.84546632072426

memory 7 GB

molecule Dimer_0_177 {
  N            6.27981210      -4.25303372       0.19313865
  N            6.06870777      -2.28125697       1.80544317
  H            3.66871156      -5.64628941      -1.96684001
  H            0.69034521      -2.37545694      -0.42864236
  H            3.35917442       0.17650601       3.09265017
  H            7.35266782      -1.99461311       2.90680702
  C            3.77952586      -1.21508453       1.76858172
  C            2.38242998      -2.55505538       0.04607681
  C            4.01771468      -4.38410490      -0.88761863
--
  N           21.75666907      19.53483875       0.19313865
  N           21.54556474      21.50661550       1.80544317
  H           19.14556853      18.14158306      -1.96684001
  H           16.16720217      21.41241552      -0.42864236
  H           18.83603139      23.96437848       3.09265017
  H           22.82952479      21.79325936       2.90680702
  C           19.25638282      22.57278794       1.76858172
  C           17.85928694      21.23281709       0.04607681
  C           19.49457165      19.40376757      -0.88761863
units = au
no_com
no_reorient
}

set {
  e_convergence 10
  d_convergence 10
  scf_type df
  mp2_type df
  cc_type df
  freeze_core true
}

energy('sapt0/aug-cc-pvdz')

--------------------------------------------------------------------------

  //              Dimer HF             //
    Molecular point group: c1
  Charge       = 0
  Multiplicity = 1
  Basis Set: AUG-CC-PVDZ
    Blend: AUG-CC-PVDZ
  Basis Set: (AUG-CC-PVDZ AUX)
    Blend: AUG-CC-PVDZ-JKFIT
  @DF-RHF Final Energy:  -449.52466338381180
    Total Energy =                       -449.5246633838117987
  //            Monomer A HF           //
    Molecular point group: c1
  Multiplicity = 1
  Basis Set: AUG-CC-PVDZ
    Blend: AUG-CC-PVDZ
  Basis Set: (AUG-CC-PVDZ AUX)
    Blend: AUG-CC-PVDZ-JKFIT
  @DF-RHF Final Energy:  -224.76233952573250
    Total Energy =                       -224.7623395257325001
  //            Monomer B HF           //
    Molecular point group: c1

    Geometry (in Bohr), charge = 0, multiplicity = 1:

       Center              X                  Y                   Z               Mass
    ------------   -----------------  -----------------  -----------------  -----------------
      Gh(N)           6.279812100000    -4.253033720000     0.193138650000    14.003074004430
      Gh(N)           6.068707770000    -2.281256970000     1.805443170000    14.003074004430
      Gh(H)           3.668711560000    -5.646289410000    -1.966840010000     1.007825032230
      Gh(H)           0.690345210000    -2.375456940000    -0.428642360000     1.007825032230
      Gh(H)           3.359174420000     0.176506010000     3.092650170000     1.007825032230
      Gh(H)           7.352667820000    -1.994613110000     2.906807020000     1.007825032230
      Gh(C)           3.779525860000    -1.215084530000     1.768581720000    12.000000000000
      Gh(C)           2.382429980000    -2.555055380000     0.046076810000    12.000000000000
      Gh(C)           4.017714680000    -4.384104900000    -0.887618630000    12.000000000000
         N           21.756669070000    19.534838750000     0.193138650000    14.003074004430
         N           21.545564740000    21.506615500000     1.805443170000    14.003074004430
         H           19.145568530000    18.141583060000    -1.966840010000     1.007825032230
         H           16.167202170000    21.412415520000    -0.428642360000     1.007825032230
         H           18.836031390000    23.964378480000     3.092650170000     1.007825032230
         H           22.829524790000    21.793259360000     2.906807020000     1.007825032230
         C           19.256382820000    22.572787940000     1.768581720000    12.000000000000
         C           17.859286940000    21.232817090000     0.046076810000    12.000000000000
         C           19.494571650000    19.403767570000    -0.887618630000    12.000000000000

  Charge       = 0
  Multiplicity = 1
  Basis Set: AUG-CC-PVDZ
    Blend: AUG-CC-PVDZ
  Basis Set: (AUG-CC-PVDZ AUX)
    Blend: AUG-CC-PVDZ-JKFIT

    Orbital Energies [Eh]
    ---------------------

    Doubly Occupied:

       1A    -15.636223     2A    -15.592313     3A    -11.279894
       4A    -11.237784     5A    -11.209891     6A     -1.386922
       7A     -1.121901     8A     -1.066898     9A     -0.872768
      10A     -0.837061    11A     -0.757292    12A     -0.645746
      13A     -0.620834    14A     -0.609140    15A     -0.583920
      16A     -0.461404    17A     -0.370721    18A     -0.346048

  @DF-RHF Final Energy:  -224.76233952442828

   => Energetics <=

    Nuclear Repulsion Energy =            166.6240562909610787
    One-Electron Energy =                -633.4992731043871572
    Two-Electron Energy =                 242.1128772889977654
    Total Energy =                       -224.7623395244282847

  Dipole Moment: [D]
     X:    -1.0235      Y:     1.6055      Z:     1.4733     Total:     2.4075

    SAPT Results
  --------------------------------------------------------------------------------------------------------
    Electrostatics                  0.01567542 [mEh]       0.00983647 [kcal/mol]       0.04115580 [kJ/mol]
      Elst10,r                      0.01567542 [mEh]       0.00983647 [kcal/mol]       0.04115580 [kJ/mol]

    Exchange                        0.00000001 [mEh]       0.00000000 [kcal/mol]       0.00000001 [kJ/mol]
      Exch10                        0.00000001 [mEh]       0.00000000 [kcal/mol]       0.00000001 [kJ/mol]
      Exch10(S^2)                   0.00000001 [mEh]       0.00000000 [kcal/mol]       0.00000001 [kJ/mol]

    Induction                      -0.00000907 [mEh]      -0.00000569 [kcal/mol]      -0.00002382 [kJ/mol]
      Ind20,r                      -0.00010066 [mEh]      -0.00006316 [kcal/mol]      -0.00026427 [kJ/mol]
      Exch-Ind20,r                  0.00000001 [mEh]       0.00000000 [kcal/mol]       0.00000002 [kJ/mol]
      delta HF,r (2)                0.00009158 [mEh]       0.00005746 [kcal/mol]       0.00024043 [kJ/mol]

    Dispersion                     -0.00217823 [mEh]      -0.00136686 [kcal/mol]      -0.00571894 [kJ/mol]
      Disp20                       -0.00217823 [mEh]      -0.00136686 [kcal/mol]      -0.00571894 [kJ/mol]
      Exch-Disp20                   0.00000000 [mEh]       0.00000000 [kcal/mol]       0.00000000 [kJ/mol]
      Disp20 (SS)                  -0.00108911 [mEh]      -0.00068343 [kcal/mol]      -0.00285947 [kJ/mol]
      Disp20 (OS)                  -0.00108911 [mEh]      -0.00068343 [kcal/mol]      -0.00285947 [kJ/mol]
      Exch-Disp20 (SS)              0.00000000 [mEh]       0.00000000 [kcal/mol]       0.00000000 [kJ/mol]
      Exch-Disp20 (OS)              0.00000000 [mEh]       0.00000000 [kcal/mol]       0.00000000 [kJ/mol]

  Total HF                          0.01566635 [mEh]       0.00983078 [kcal/mol]       0.04113199 [kJ/mol]
  Total SAPT0                       0.01348812 [mEh]       0.00846392 [kcal/mol]       0.03541306 [kJ/mol]

  Special recipe for scaled SAPT0 (see Manual):
    Electrostatics sSAPT0           0.01567542 [mEh]       0.00983647 [kcal/mol]       0.04115580 [kJ/mol]
    Exchange sSAPT0                 0.00000001 [mEh]       0.00000000 [kcal/mol]       0.00000001 [kJ/mol]
    Induction sSAPT0               -0.00000907 [mEh]      -0.00000569 [kcal/mol]      -0.00002382 [kJ/mol]
    Dispersion sSAPT0              -0.00217823 [mEh]      -0.00136686 [kcal/mol]      -0.00571894 [kJ/mol]
  Total sSAPT0                      0.01348812 [mEh]       0.00846392 [kcal/mol]       0.03541306 [kJ/mol]
  --------------------------------------------------------------------------------------------------------

*** Psi4 exiting successfully. Buy a developer a beer!
