                               Psi4 1.4rc3

  ==> Input File <==

--------------------------------------------------------------------------
# PSI4 file produced by CrystaLattE

# Generated from:               pyrazole.xyz
# Psithon input for N-mer:      2mer-0+722
# Number of atoms per monomer:  [9, 9]
# Number of replicas:           1
# COM priority:                 1.451058962294e-05
# Minimum COM separations:      21.696
# Separation priority:          1.871695992331e-05
# Minimum monomer separations:  19.931
# Cutoff priority:              4.969512041361e-07
# Nuclear repulsion energy:     364.7834432728382

memory 7 GB

molecule Dimer_0_722 {
  N            6.27981210      -4.25303372       0.19313865
  N            6.06870777      -2.28125697       1.80544317
  H            3.66871156      -5.64628941      -1.96684001
  H            0.69034521      -2.37545694      -0.42864236
  H            3.35917442       0.17650601       3.09265017
  H            7.35266782      -1.99461311       2.90680702
  C            3.77952586      -1.21508453       1.76858172
  C            2.38242998      -2.55505538       0.04607681
  C            4.01771468      -4.38410490      -0.88761863
--
  N           18.27499532     -37.97519749      14.38697326
  N           18.39385758     -40.01310452      12.84979954
  H           20.94815806     -35.57428752      15.10500361
  H           23.84279462     -38.01682626      12.34986611
  H           20.90637054     -41.72987528      10.44522980
  H           16.93144937     -40.82308158      12.46403422
  C           20.67669399     -40.34328019      11.82075069
  C           22.15968642     -38.41360798      12.71067316
  C           20.59838109     -37.02844016      14.30237111
units = au
no_com
no_reorient
}

set {
  e_convergence 10
  d_convergence 10
  scf_type df
  mp2_type df
  cc_type df
  freeze_core true
}

energy('sapt0/aug-cc-pvdz')

--------------------------------------------------------------------------

  //              Dimer HF             //
    Molecular point group: c1
  Charge       = 0
  Multiplicity = 1
  Basis Set: AUG-CC-PVDZ
    Blend: AUG-CC-PVDZ
  Basis Set: (AUG-CC-PVDZ AUX)
    Blend: AUG-CC-PVDZ-JKFIT
  @DF-RHF Final Energy:  -449.52477329217663
    Total Energy =                       -449.5247732921766328
  //            Monomer A HF           //
    Molecular point group: c1
  Multiplicity = 1
  Basis Set: AUG-CC-PVDZ
    Blend: AUG-CC-PVDZ
  Basis Set: (AUG-CC-PVDZ AUX)
    Blend: AUG-CC-PVDZ-JKFIT
  @DF-RHF Final Energy:  -224.76233952040985
    Total Energy =                       -224.7623395204098529
  //            Monomer B HF           //
    Molecular point group: c1

    Geometry (in Bohr), charge = 0, multiplicity = 1:

       Center              X                  Y                   Z               Mass
    ------------   -----------------  -----------------  -----------------  -----------------
      Gh(N)           6.279812100000    -4.253033720000     0.193138650000    14.003074004430
      Gh(N)           6.068707770000    -2.281256970000     1.805443170000    14.003074004430
      Gh(H)           3.668711560000    -5.646289410000    -1.966840010000     1.007825032230
      Gh(H)           0.690345210000    -2.375456940000    -0.428642360000     1.007825032230
      Gh(H)           3.359174420000     0.176506010000     3.092650170000     1.007825032230
      Gh(H)           7.352667820000    -1.994613110000     2.906807020000     1.007825032230
      Gh(C)           3.779525860000    -1.215084530000     1.768581720000    12.000000000000
      Gh(C)           2.382429980000    -2.555055380000     0.046076810000    12.000000000000
      Gh(C)           4.017714680000    -4.384104900000    -0.887618630000    12.000000000000
         N           18.274995320000   -37.975197490000    14.386973260000    14.003074004430
         N           18.393857580000   -40.013104520000    12.849799540000    14.003074004430
         H           20.948158060000   -35.574287520000    15.105003610000     1.007825032230
         H           23.842794620000   -38.016826260000    12.349866110000     1.007825032230
         H           20.906370540000   -41.729875280000    10.445229800000     1.007825032230
         H           16.931449370000   -40.823081580000    12.464034220000     1.007825032230
         C           20.676693990000   -40.343280190000    11.820750690000    12.000000000000
         C           22.159686420000   -38.413607980000    12.710673160000    12.000000000000
         C           20.598381090000   -37.028440160000    14.302371110000    12.000000000000

  Charge       = 0
  Multiplicity = 1
  Basis Set: AUG-CC-PVDZ
    Blend: AUG-CC-PVDZ
  Basis Set: (AUG-CC-PVDZ AUX)
    Blend: AUG-CC-PVDZ-JKFIT

    Orbital Energies [Eh]
    ---------------------

    Doubly Occupied:

       1A    -15.636233     2A    -15.592291     3A    -11.279903
       4A    -11.237759     5A    -11.209884     6A     -1.387001
       7A     -1.121894     8A     -1.066928     9A     -0.872759
      10A     -0.837039    11A     -0.757272    12A     -0.645745
      13A     -0.620828    14A     -0.609177    15A     -0.583905
      16A     -0.461413    17A     -0.370715    18A     -0.346055

  @DF-RHF Final Energy:  -224.76243506084521

   => Energetics <=

    Nuclear Repulsion Energy =            166.6286027475264291
    One-Electron Energy =                -633.5084732770253595
    Two-Electron Energy =                 242.1174354686537242
    Total Energy =                       -224.7624350608452062

  Dipole Moment: [D]
     X:     0.7394      Y:    -1.4336      Z:    -1.7871     Total:     2.4074

    SAPT Results
  --------------------------------------------------------------------------------------------------------
    Electrostatics                  0.00124986 [mEh]       0.00078430 [kcal/mol]       0.00328152 [kJ/mol]
      Elst10,r                      0.00124986 [mEh]       0.00078430 [kcal/mol]       0.00328152 [kJ/mol]

    Exchange                        0.00000000 [mEh]       0.00000000 [kcal/mol]       0.00000000 [kJ/mol]
      Exch10                        0.00000000 [mEh]       0.00000000 [kcal/mol]       0.00000000 [kJ/mol]
      Exch10(S^2)                   0.00000000 [mEh]       0.00000000 [kcal/mol]       0.00000000 [kJ/mol]

    Induction                       0.00003922 [mEh]       0.00002461 [kcal/mol]       0.00010296 [kJ/mol]
      Ind20,r                      -0.00001387 [mEh]      -0.00000871 [kcal/mol]      -0.00003642 [kJ/mol]
      Exch-Ind20,r                  0.00000000 [mEh]       0.00000000 [kcal/mol]       0.00000000 [kJ/mol]
      delta HF,r (2)                0.00005309 [mEh]       0.00003331 [kcal/mol]       0.00013938 [kJ/mol]

    Dispersion                     -0.00021775 [mEh]      -0.00013664 [kcal/mol]      -0.00057170 [kJ/mol]
      Disp20                       -0.00021775 [mEh]      -0.00013664 [kcal/mol]      -0.00057170 [kJ/mol]
      Exch-Disp20                   0.00000000 [mEh]       0.00000000 [kcal/mol]       0.00000000 [kJ/mol]
      Disp20 (SS)                  -0.00010887 [mEh]      -0.00006832 [kcal/mol]      -0.00028585 [kJ/mol]
      Disp20 (OS)                  -0.00010887 [mEh]      -0.00006832 [kcal/mol]      -0.00028585 [kJ/mol]
      Exch-Disp20 (SS)              0.00000000 [mEh]       0.00000000 [kcal/mol]       0.00000000 [kJ/mol]
      Exch-Disp20 (OS)              0.00000000 [mEh]       0.00000000 [kcal/mol]       0.00000000 [kJ/mol]

  Total HF                          0.00128908 [mEh]       0.00080891 [kcal/mol]       0.00338447 [kJ/mol]
  Total SAPT0                       0.00107133 [mEh]       0.00067227 [kcal/mol]       0.00281278 [kJ/mol]

  Special recipe for scaled SAPT0 (see Manual):
    Electrostatics sSAPT0           0.00124986 [mEh]       0.00078430 [kcal/mol]       0.00328152 [kJ/mol]
    Exchange sSAPT0                 0.00000000 [mEh]       0.00000000 [kcal/mol]       0.00000000 [kJ/mol]
    Induction sSAPT0                0.00003922 [mEh]       0.00002461 [kcal/mol]       0.00010296 [kJ/mol]
    Dispersion sSAPT0              -0.00021775 [mEh]      -0.00013664 [kcal/mol]      -0.00057170 [kJ/mol]
  Total sSAPT0                      0.00107133 [mEh]       0.00067227 [kcal/mol]       0.00281278 [kJ/mol]
  --------------------------------------------------------------------------------------------------------

*** Psi4 exiting successfully. Buy a developer a beer!
