                               Psi4 1.4rc3

  ==> Input File <==

--------------------------------------------------------------------------
# PSI4 file produced by CrystaLattE

# Generated from:               pyrazole.xyz
# Psithon input for N-mer:      2mer-0+473
# Number of atoms per monomer:  [9, 9]
# Number of replicas:           1
# COM priority:                 1.270809526834e-05
# Minimum COM separations:      22.676
# Separation priority:          2.139304213023e-05
# Minimum monomer separations:  19.062
# Cutoff priority:              5.938773043771e-07
# Nuclear repulsion energy:     363.565613476706

memory 7 GB

molecule Dimer_0_473 {
  N            6.27981210      -4.25303372       0.19313865
  N            6.06870777      -2.28125697       1.80544317
  H            3.66871156      -5.64628941      -1.96684001
  H            0.69034521      -2.37545694      -0.42864236
  H            3.35917442       0.17650601       3.09265017
  H            7.35266782      -1.99461311       2.90680702
  C            3.77952586      -1.21508453       1.76858172
  C            2.38242998      -2.55505538       0.04607681
  C            4.01771468      -4.38410490      -0.88761863
--
  N          -12.67871861       9.60054745      39.98520336
  N          -12.55985635       7.56264041      38.44802964
  H          -10.00555588      12.00145742      40.70323371
  H           -7.11091932       9.55891867      37.94809621
  H          -10.04734339       5.84586966      36.04345989
  H          -14.02226457       6.75266336      38.06226431
  C          -10.27701995       7.23246474      37.41898079
  C           -8.79402751       9.16213696      38.30890326
  C          -10.35533284      10.54730477      39.90060121
units = au
no_com
no_reorient
}

set {
  e_convergence 10
  d_convergence 10
  scf_type df
  mp2_type df
  cc_type df
  freeze_core true
}

energy('sapt0/aug-cc-pvdz')

--------------------------------------------------------------------------

  //              Dimer HF             //
    Molecular point group: c1
  Charge       = 0
  Multiplicity = 1
  Basis Set: AUG-CC-PVDZ
    Blend: AUG-CC-PVDZ
  Basis Set: (AUG-CC-PVDZ AUX)
    Blend: AUG-CC-PVDZ-JKFIT
  @DF-RHF Final Energy:  -449.52476078622669
    Total Energy =                       -449.5247607862266932
  //            Monomer A HF           //
    Molecular point group: c1
  Multiplicity = 1
  Basis Set: AUG-CC-PVDZ
    Blend: AUG-CC-PVDZ
  Basis Set: (AUG-CC-PVDZ AUX)
    Blend: AUG-CC-PVDZ-JKFIT
  @DF-RHF Final Energy:  -224.76233952128160
    Total Energy =                       -224.7623395212816035
  //            Monomer B HF           //
    Molecular point group: c1

    Geometry (in Bohr), charge = 0, multiplicity = 1:

       Center              X                  Y                   Z               Mass
    ------------   -----------------  -----------------  -----------------  -----------------
      Gh(N)           6.279812100000    -4.253033720000     0.193138650000    14.003074004430
      Gh(N)           6.068707770000    -2.281256970000     1.805443170000    14.003074004430
      Gh(H)           3.668711560000    -5.646289410000    -1.966840010000     1.007825032230
      Gh(H)           0.690345210000    -2.375456940000    -0.428642360000     1.007825032230
      Gh(H)           3.359174420000     0.176506010000     3.092650170000     1.007825032230
      Gh(H)           7.352667820000    -1.994613110000     2.906807020000     1.007825032230
      Gh(C)           3.779525860000    -1.215084530000     1.768581720000    12.000000000000
      Gh(C)           2.382429980000    -2.555055380000     0.046076810000    12.000000000000
      Gh(C)           4.017714680000    -4.384104900000    -0.887618630000    12.000000000000
         N          -12.678718610000     9.600547450000    39.985203360000    14.003074004430
         N          -12.559856350000     7.562640410000    38.448029640000    14.003074004430
         H          -10.005555880000    12.001457420000    40.703233710000     1.007825032230
         H           -7.110919320000     9.558918670000    37.948096210000     1.007825032230
         H          -10.047343390000     5.845869660000    36.043459890000     1.007825032230
         H          -14.022264570000     6.752663360000    38.062264310000     1.007825032230
         C          -10.277019950000     7.232464740000    37.418980790000    12.000000000000
         C           -8.794027510000     9.162136960000    38.308903260000    12.000000000000
         C          -10.355332840000    10.547304770000    39.900601210000    12.000000000000

  Charge       = 0
  Multiplicity = 1
  Basis Set: AUG-CC-PVDZ
    Blend: AUG-CC-PVDZ
  Basis Set: (AUG-CC-PVDZ AUX)
    Blend: AUG-CC-PVDZ-JKFIT

    Orbital Energies [Eh]
    ---------------------

    Doubly Occupied:

       1A    -15.636233     2A    -15.592291     3A    -11.279903
       4A    -11.237759     5A    -11.209884     6A     -1.387001
       7A     -1.121894     8A     -1.066928     9A     -0.872759
      10A     -0.837039    11A     -0.757272    12A     -0.645745
      13A     -0.620828    14A     -0.609177    15A     -0.583905
      16A     -0.461413    17A     -0.370715    18A     -0.346055

  @DF-RHF Final Energy:  -224.76243506061644

   => Energetics <=

    Nuclear Repulsion Energy =            166.6286027107193490
    One-Electron Energy =                -633.5084732053761627
    Two-Electron Energy =                 242.1174354340403738
    Total Energy =                       -224.7624350606164398

  Dipole Moment: [D]
     X:     0.7394      Y:    -1.4336      Z:    -1.7871     Total:     2.4074

    SAPT Results
  --------------------------------------------------------------------------------------------------------
    Electrostatics                  0.01376350 [mEh]       0.00863673 [kcal/mol]       0.03613606 [kJ/mol]
      Elst10,r                      0.01376350 [mEh]       0.00863673 [kcal/mol]       0.03613606 [kJ/mol]

    Exchange                        0.00000000 [mEh]       0.00000000 [kcal/mol]       0.00000000 [kJ/mol]
      Exch10                        0.00000000 [mEh]       0.00000000 [kcal/mol]       0.00000000 [kJ/mol]
      Exch10(S^2)                   0.00000000 [mEh]       0.00000000 [kcal/mol]       0.00000000 [kJ/mol]

    Induction                       0.00003217 [mEh]       0.00002019 [kcal/mol]       0.00008447 [kJ/mol]
      Ind20,r                      -0.00002051 [mEh]      -0.00001287 [kcal/mol]      -0.00005384 [kJ/mol]
      Exch-Ind20,r                  0.00000000 [mEh]       0.00000000 [kcal/mol]       0.00000000 [kJ/mol]
      delta HF,r (2)                0.00005268 [mEh]       0.00003306 [kcal/mol]       0.00013831 [kJ/mol]

    Dispersion                     -0.00019629 [mEh]      -0.00012317 [kcal/mol]      -0.00051536 [kJ/mol]
      Disp20                       -0.00019629 [mEh]      -0.00012317 [kcal/mol]      -0.00051536 [kJ/mol]
      Exch-Disp20                   0.00000000 [mEh]       0.00000000 [kcal/mol]       0.00000000 [kJ/mol]
      Disp20 (SS)                  -0.00009815 [mEh]      -0.00006159 [kcal/mol]      -0.00025768 [kJ/mol]
      Disp20 (OS)                  -0.00009815 [mEh]      -0.00006159 [kcal/mol]      -0.00025768 [kJ/mol]
      Exch-Disp20 (SS)              0.00000000 [mEh]       0.00000000 [kcal/mol]       0.00000000 [kJ/mol]
      Exch-Disp20 (OS)              0.00000000 [mEh]       0.00000000 [kcal/mol]       0.00000000 [kJ/mol]

  Total HF                          0.01379567 [mEh]       0.00865691 [kcal/mol]       0.03622053 [kJ/mol]
  Total SAPT0                       0.01359938 [mEh]       0.00853374 [kcal/mol]       0.03570517 [kJ/mol]

  Special recipe for scaled SAPT0 (see Manual):
    Electrostatics sSAPT0           0.01376350 [mEh]       0.00863673 [kcal/mol]       0.03613606 [kJ/mol]
    Exchange sSAPT0                 0.00000000 [mEh]       0.00000000 [kcal/mol]       0.00000000 [kJ/mol]
    Induction sSAPT0                0.00003217 [mEh]       0.00002019 [kcal/mol]       0.00008447 [kJ/mol]
    Dispersion sSAPT0              -0.00019629 [mEh]      -0.00012317 [kcal/mol]      -0.00051536 [kJ/mol]
  Total sSAPT0                      0.01359938 [mEh]       0.00853374 [kcal/mol]       0.03570517 [kJ/mol]
  --------------------------------------------------------------------------------------------------------

*** Psi4 exiting successfully. Buy a developer a beer!
