                               Psi4 1.4rc3

  ==> Input File <==

--------------------------------------------------------------------------
# PSI4 file produced by CrystaLattE

# Generated from:               pyrazole.xyz
# Psithon input for N-mer:      2mer-0+376
# Number of atoms per monomer:  [9, 9]
# Number of replicas:           1
# COM priority:                 2.083079559996e-05
# Minimum COM separations:      19.232
# Separation priority:          3.345706267558e-05
# Minimum monomer separations:  16.422
# Cutoff priority:              1.078078569952e-06
# Nuclear repulsion energy:     368.9068836369115

memory 7 GB

molecule Dimer_0_376 {
  N            6.27981210      -4.25303372       0.19313865
  N            6.06870777      -2.28125697       1.80544317
  H            3.66871156      -5.64628941      -1.96684001
  H            0.69034521      -2.37545694      -0.42864236
  H            3.35917442       0.17650601       3.09265017
  H            7.35266782      -1.99461311       2.90680702
  C            3.77952586      -1.21508453       1.76858172
  C            2.38242998      -2.55505538       0.04607681
  C            4.01771468      -4.38410490      -0.88761863
--
  N            2.79813836     -21.38696250      33.58564583
  N            2.91700062     -19.34905546      32.04847211
  H            5.47130109     -23.78787247      34.30367619
  H            8.36593765     -21.34533372      31.54853868
  H            5.42951358     -17.63228471      29.64390237
  H            1.45459240     -18.53907841      31.66270679
  C            5.19983702     -19.01887980      31.01942327
  C            6.68282945     -20.94855201      31.90934573
  C            5.12152412     -22.33371982      33.50104368
units = au
no_com
no_reorient
}

set {
  e_convergence 10
  d_convergence 10
  scf_type df
  mp2_type df
  cc_type df
  freeze_core true
}

energy('sapt0/aug-cc-pvdz')

--------------------------------------------------------------------------

  //              Dimer HF             //
    Molecular point group: c1
  Charge       = 0
  Multiplicity = 1
  Basis Set: AUG-CC-PVDZ
    Blend: AUG-CC-PVDZ
  Basis Set: (AUG-CC-PVDZ AUX)
    Blend: AUG-CC-PVDZ-JKFIT
  @DF-RHF Final Energy:  -449.52476457077819
    Total Energy =                       -449.5247645707781885
  //            Monomer A HF           //
    Molecular point group: c1
  Multiplicity = 1
  Basis Set: AUG-CC-PVDZ
    Blend: AUG-CC-PVDZ
  Basis Set: (AUG-CC-PVDZ AUX)
    Blend: AUG-CC-PVDZ-JKFIT
  @DF-RHF Final Energy:  -224.76233952138705
    Total Energy =                       -224.7623395213870481
  //            Monomer B HF           //
    Molecular point group: c1

    Geometry (in Bohr), charge = 0, multiplicity = 1:

       Center              X                  Y                   Z               Mass
    ------------   -----------------  -----------------  -----------------  -----------------
      Gh(N)           6.279812100000    -4.253033720000     0.193138650000    14.003074004430
      Gh(N)           6.068707770000    -2.281256970000     1.805443170000    14.003074004430
      Gh(H)           3.668711560000    -5.646289410000    -1.966840010000     1.007825032230
      Gh(H)           0.690345210000    -2.375456940000    -0.428642360000     1.007825032230
      Gh(H)           3.359174420000     0.176506010000     3.092650170000     1.007825032230
      Gh(H)           7.352667820000    -1.994613110000     2.906807020000     1.007825032230
      Gh(C)           3.779525860000    -1.215084530000     1.768581720000    12.000000000000
      Gh(C)           2.382429980000    -2.555055380000     0.046076810000    12.000000000000
      Gh(C)           4.017714680000    -4.384104900000    -0.887618630000    12.000000000000
         N            2.798138360000   -21.386962500000    33.585645830000    14.003074004430
         N            2.917000620000   -19.349055460000    32.048472110000    14.003074004430
         H            5.471301090000   -23.787872470000    34.303676190000     1.007825032230
         H            8.365937650000   -21.345333720000    31.548538680000     1.007825032230
         H            5.429513580000   -17.632284710000    29.643902370000     1.007825032230
         H            1.454592400000   -18.539078410000    31.662706790000     1.007825032230
         C            5.199837020000   -19.018879800000    31.019423270000    12.000000000000
         C            6.682829450000   -20.948552010000    31.909345730000    12.000000000000
         C            5.121524120000   -22.333719820000    33.501043680000    12.000000000000

  Charge       = 0
  Multiplicity = 1
  Basis Set: AUG-CC-PVDZ
    Blend: AUG-CC-PVDZ
  Basis Set: (AUG-CC-PVDZ AUX)
    Blend: AUG-CC-PVDZ-JKFIT

    Orbital Energies [Eh]
    ---------------------

    Doubly Occupied:

       1A    -15.636233     2A    -15.592291     3A    -11.279903
       4A    -11.237759     5A    -11.209884     6A     -1.387001
       7A     -1.121894     8A     -1.066928     9A     -0.872759
      10A     -0.837039    11A     -0.757272    12A     -0.645745
      13A     -0.620828    14A     -0.609177    15A     -0.583905
      16A     -0.461413    17A     -0.370715    18A     -0.346055

  @DF-RHF Final Energy:  -224.76243506495709

   => Energetics <=

    Nuclear Repulsion Energy =            166.6286029853133073
    One-Electron Energy =                -633.5084737626452807
    Two-Electron Energy =                 242.1174357123748848
    Total Energy =                       -224.7624350649570886

  Dipole Moment: [D]
     X:     0.7394      Y:     1.4336      Z:    -1.7871     Total:     2.4074

    SAPT Results
  --------------------------------------------------------------------------------------------------------
    Electrostatics                  0.01000580 [mEh]       0.00627873 [kcal/mol]       0.02627021 [kJ/mol]
      Elst10,r                      0.01000580 [mEh]       0.00627873 [kcal/mol]       0.02627021 [kJ/mol]

    Exchange                        0.00000000 [mEh]       0.00000000 [kcal/mol]       0.00000000 [kJ/mol]
      Exch10                        0.00000000 [mEh]       0.00000000 [kcal/mol]       0.00000000 [kJ/mol]
      Exch10(S^2)                   0.00000000 [mEh]       0.00000000 [kcal/mol]       0.00000000 [kJ/mol]

    Induction                       0.00000977 [mEh]       0.00000613 [kcal/mol]       0.00002565 [kJ/mol]
      Ind20,r                      -0.00004001 [mEh]      -0.00002511 [kcal/mol]      -0.00010504 [kJ/mol]
      Exch-Ind20,r                  0.00000000 [mEh]       0.00000000 [kcal/mol]       0.00000000 [kJ/mol]
      delta HF,r (2)                0.00004978 [mEh]       0.00003124 [kcal/mol]       0.00013070 [kJ/mol]

    Dispersion                     -0.00047981 [mEh]      -0.00030109 [kcal/mol]      -0.00125975 [kJ/mol]
      Disp20                       -0.00047981 [mEh]      -0.00030109 [kcal/mol]      -0.00125975 [kJ/mol]
      Exch-Disp20                   0.00000000 [mEh]       0.00000000 [kcal/mol]       0.00000000 [kJ/mol]
      Disp20 (SS)                  -0.00023991 [mEh]      -0.00015054 [kcal/mol]      -0.00062987 [kJ/mol]
      Disp20 (OS)                  -0.00023991 [mEh]      -0.00015054 [kcal/mol]      -0.00062987 [kJ/mol]
      Exch-Disp20 (SS)              0.00000000 [mEh]       0.00000000 [kcal/mol]       0.00000000 [kJ/mol]
      Exch-Disp20 (OS)              0.00000000 [mEh]       0.00000000 [kcal/mol]       0.00000000 [kJ/mol]

  Total HF                          0.01001557 [mEh]       0.00628486 [kcal/mol]       0.02629586 [kJ/mol]
  Total SAPT0                       0.00953575 [mEh]       0.00598378 [kcal/mol]       0.02503612 [kJ/mol]

  Special recipe for scaled SAPT0 (see Manual):
    Electrostatics sSAPT0           0.01000580 [mEh]       0.00627873 [kcal/mol]       0.02627021 [kJ/mol]
    Exchange sSAPT0                 0.00000000 [mEh]       0.00000000 [kcal/mol]       0.00000000 [kJ/mol]
    Induction sSAPT0                0.00000977 [mEh]       0.00000613 [kcal/mol]       0.00002565 [kJ/mol]
    Dispersion sSAPT0              -0.00047981 [mEh]      -0.00030109 [kcal/mol]      -0.00125975 [kJ/mol]
  Total sSAPT0                      0.00953575 [mEh]       0.00598378 [kcal/mol]       0.02503612 [kJ/mol]
  --------------------------------------------------------------------------------------------------------

*** Psi4 exiting successfully. Buy a developer a beer!
