                               Psi4 1.4rc3

  ==> Input File <==

--------------------------------------------------------------------------
# PSI4 file produced by CrystaLattE

# Generated from:               pyrazole.xyz
# Psithon input for N-mer:      2mer-0+172
# Number of atoms per monomer:  [9, 9]
# Number of replicas:           1
# COM priority:                 3.199755382283e-05
# Minimum COM separations:      16.668
# Separation priority:          7.180539114967e-05
# Minimum monomer separations:  12.732
# Cutoff priority:              2.984530831733e-06
# Nuclear repulsion energy:     374.50784337779976

memory 7 GB

molecule Dimer_0_172 {
  N            6.27981210      -4.25303372       0.19313865
  N            6.06870777      -2.28125697       1.80544317
  H            3.66871156      -5.64628941      -1.96684001
  H            0.69034521      -2.37545694      -0.42864236
  H            3.35917442       0.17650601       3.09265017
  H            7.35266782      -1.99461311       2.90680702
  C            3.77952586      -1.21508453       1.76858172
  C            2.38242998      -2.55505538       0.04607681
  C            4.01771468      -4.38410490      -0.88761863
--
  N           -4.94029013      14.29484620      24.05644870
  N           -4.82142787      16.33275324      25.59362241
  H           -2.26712739      11.89393623      23.33841834
  H            0.62750917      14.33647498      26.09355585
  H           -2.30891491      18.04952399      27.99819216
  H           -6.28383608      17.14273029      25.97938774
  C           -2.53859146      16.66292891      26.62267126
  C           -1.05559903      14.73325669      25.73274879
  C           -2.61690436      13.34808888      24.14105085
units = au
no_com
no_reorient
}

set {
  e_convergence 10
  d_convergence 10
  scf_type df
  mp2_type df
  cc_type df
  freeze_core true
}

energy('sapt0/aug-cc-pvdz')

--------------------------------------------------------------------------

  //              Dimer HF             //
    Molecular point group: c1
  Charge       = 0
  Multiplicity = 1
  Basis Set: AUG-CC-PVDZ
    Blend: AUG-CC-PVDZ
  Basis Set: (AUG-CC-PVDZ AUX)
    Blend: AUG-CC-PVDZ-JKFIT
  @DF-RHF Final Energy:  -449.52480837239625
    Total Energy =                       -449.5248083723962509
  //            Monomer A HF           //
    Molecular point group: c1
  Multiplicity = 1
  Basis Set: AUG-CC-PVDZ
    Blend: AUG-CC-PVDZ
  Basis Set: (AUG-CC-PVDZ AUX)
    Blend: AUG-CC-PVDZ-JKFIT
  @DF-RHF Final Energy:  -224.76233952670549
    Total Energy =                       -224.7623395267054889
  //            Monomer B HF           //
    Molecular point group: c1

    Geometry (in Bohr), charge = 0, multiplicity = 1:

       Center              X                  Y                   Z               Mass
    ------------   -----------------  -----------------  -----------------  -----------------
      Gh(N)           6.279812100000    -4.253033720000     0.193138650000    14.003074004430
      Gh(N)           6.068707770000    -2.281256970000     1.805443170000    14.003074004430
      Gh(H)           3.668711560000    -5.646289410000    -1.966840010000     1.007825032230
      Gh(H)           0.690345210000    -2.375456940000    -0.428642360000     1.007825032230
      Gh(H)           3.359174420000     0.176506010000     3.092650170000     1.007825032230
      Gh(H)           7.352667820000    -1.994613110000     2.906807020000     1.007825032230
      Gh(C)           3.779525860000    -1.215084530000     1.768581720000    12.000000000000
      Gh(C)           2.382429980000    -2.555055380000     0.046076810000    12.000000000000
      Gh(C)           4.017714680000    -4.384104900000    -0.887618630000    12.000000000000
         N           -4.940290130000    14.294846200000    24.056448700000    14.003074004430
         N           -4.821427870000    16.332753240000    25.593622410000    14.003074004430
         H           -2.267127390000    11.893936230000    23.338418340000     1.007825032230
         H            0.627509170000    14.336474980000    26.093555850000     1.007825032230
         H           -2.308914910000    18.049523990000    27.998192160000     1.007825032230
         H           -6.283836080000    17.142730290000    25.979387740000     1.007825032230
         C           -2.538591460000    16.662928910000    26.622671260000    12.000000000000
         C           -1.055599030000    14.733256690000    25.732748790000    12.000000000000
         C           -2.616904360000    13.348088880000    24.141050850000    12.000000000000

  Charge       = 0
  Multiplicity = 1
  Basis Set: AUG-CC-PVDZ
    Blend: AUG-CC-PVDZ
  Basis Set: (AUG-CC-PVDZ AUX)
    Blend: AUG-CC-PVDZ-JKFIT

    Orbital Energies [Eh]
    ---------------------

    Doubly Occupied:

       1A    -15.636233     2A    -15.592291     3A    -11.279903
       4A    -11.237759     5A    -11.209884     6A     -1.387001
       7A     -1.121894     8A     -1.066928     9A     -0.872759
      10A     -0.837039    11A     -0.757272    12A     -0.645745
      13A     -0.620828    14A     -0.609177    15A     -0.583905
      16A     -0.461413    17A     -0.370715    18A     -0.346055

  @DF-RHF Final Energy:  -224.76243507206533

   => Energetics <=

    Nuclear Repulsion Energy =            166.6286027753793348
    One-Electron Energy =                -633.5084734306437895
    Two-Electron Energy =                 242.1174355831990965
    Total Energy =                       -224.7624350720653297

  Dipole Moment: [D]
     X:     0.7394      Y:     1.4336      Z:     1.7871     Total:     2.4074

    SAPT Results
  --------------------------------------------------------------------------------------------------------
    Electrostatics                 -0.03370389 [mEh]      -0.02114951 [kcal/mol]      -0.08848956 [kJ/mol]
      Elst10,r                     -0.03370389 [mEh]      -0.02114951 [kcal/mol]      -0.08848956 [kJ/mol]

    Exchange                        0.00000002 [mEh]       0.00000002 [kcal/mol]       0.00000007 [kJ/mol]
      Exch10                        0.00000002 [mEh]       0.00000002 [kcal/mol]       0.00000007 [kJ/mol]
      Exch10(S^2)                   0.00000002 [mEh]       0.00000002 [kcal/mol]       0.00000007 [kJ/mol]

    Induction                      -0.00006976 [mEh]      -0.00004377 [kcal/mol]      -0.00018314 [kJ/mol]
      Ind20,r                      -0.00015156 [mEh]      -0.00009511 [kcal/mol]      -0.00039792 [kJ/mol]
      Exch-Ind20,r                  0.00000003 [mEh]       0.00000002 [kcal/mol]       0.00000008 [kJ/mol]
      delta HF,r (2)                0.00008177 [mEh]       0.00005131 [kcal/mol]       0.00021469 [kJ/mol]

    Dispersion                     -0.00138772 [mEh]      -0.00087081 [kcal/mol]      -0.00364345 [kJ/mol]
      Disp20                       -0.00138772 [mEh]      -0.00087081 [kcal/mol]      -0.00364345 [kJ/mol]
      Exch-Disp20                   0.00000000 [mEh]       0.00000000 [kcal/mol]       0.00000000 [kJ/mol]
      Disp20 (SS)                  -0.00069386 [mEh]      -0.00043540 [kcal/mol]      -0.00182173 [kJ/mol]
      Disp20 (OS)                  -0.00069386 [mEh]      -0.00043540 [kcal/mol]      -0.00182173 [kJ/mol]
      Exch-Disp20 (SS)              0.00000000 [mEh]       0.00000000 [kcal/mol]       0.00000000 [kJ/mol]
      Exch-Disp20 (OS)              0.00000000 [mEh]       0.00000000 [kcal/mol]       0.00000000 [kJ/mol]

  Total HF                         -0.03377363 [mEh]      -0.02119327 [kcal/mol]      -0.08867264 [kJ/mol]
  Total SAPT0                      -0.03516134 [mEh]      -0.02206408 [kcal/mol]      -0.09231609 [kJ/mol]

  Special recipe for scaled SAPT0 (see Manual):
    Electrostatics sSAPT0          -0.03370389 [mEh]      -0.02114951 [kcal/mol]      -0.08848956 [kJ/mol]
    Exchange sSAPT0                 0.00000002 [mEh]       0.00000002 [kcal/mol]       0.00000007 [kJ/mol]
    Induction sSAPT0               -0.00006976 [mEh]      -0.00004377 [kcal/mol]      -0.00018314 [kJ/mol]
    Dispersion sSAPT0              -0.00138772 [mEh]      -0.00087081 [kcal/mol]      -0.00364345 [kJ/mol]
  Total sSAPT0                     -0.03516134 [mEh]      -0.02206408 [kcal/mol]      -0.09231609 [kJ/mol]
  --------------------------------------------------------------------------------------------------------

*** Psi4 exiting successfully. Buy a developer a beer!
