                               Psi4 1.4rc3

  ==> Input File <==

--------------------------------------------------------------------------
# PSI4 file produced by CrystaLattE

# Generated from:               pyrazole.xyz
# Psithon input for N-mer:      2mer-0+28
# Number of atoms per monomer:  [9, 9]
# Number of replicas:           2
# COM priority:                 1.234457621021e-04
# Minimum COM separations:      10.628
# Separation priority:          4.616990029283e-04
# Minimum monomer separations:  6.847
# Cutoff priority:              3.568441506275e-05
# Nuclear repulsion energy:     398.20202286295466

memory 7 GB

molecule Dimer_0_28 {
  N            6.27981210      -4.25303372       0.19313865
  N            6.06870777      -2.28125697       1.80544317
  H            3.66871156      -5.64628941      -1.96684001
  H            0.69034521      -2.37545694      -0.42864236
  H            3.35917442       0.17650601       3.09265017
  H            7.35266782      -1.99461311       2.90680702
  C            3.77952586      -1.21508453       1.76858172
  C            2.38242998      -2.55505538       0.04607681
  C            4.01771468      -4.38410490      -0.88761863
--
  N           -9.19704487      -4.25303372     -12.60597640
  N           -9.40814920      -2.28125697     -10.99367188
  H          -11.80814541      -5.64628941     -14.76595506
  H          -14.78651176      -2.37545694     -13.22775741
  H          -12.11768255       0.17650601      -9.70646488
  H           -8.12418914      -1.99461311      -9.89230803
  C          -11.69733111      -1.21508453     -11.03053333
  C          -13.09442699      -2.55505538     -12.75303823
  C          -11.45914228      -4.38410490     -13.68673368
units = au
no_com
no_reorient
}

set {
  e_convergence 10
  d_convergence 10
  scf_type df
  mp2_type df
  cc_type df
  freeze_core true
}

energy('sapt0/aug-cc-pvdz')

--------------------------------------------------------------------------

  //              Dimer HF             //
    Molecular point group: c1
  Charge       = 0
  Multiplicity = 1
  Basis Set: AUG-CC-PVDZ
    Blend: AUG-CC-PVDZ
  Basis Set: (AUG-CC-PVDZ AUX)
    Blend: AUG-CC-PVDZ-JKFIT
  @DF-RHF Final Energy:  -449.52458167828541
    Total Energy =                       -449.5245816782854718
  //            Monomer A HF           //
    Molecular point group: c1
  Multiplicity = 1
  Basis Set: AUG-CC-PVDZ
    Blend: AUG-CC-PVDZ
  Basis Set: (AUG-CC-PVDZ AUX)
    Blend: AUG-CC-PVDZ-JKFIT
  @DF-RHF Final Energy:  -224.76235239188637
    Total Energy =                       -224.7623523918863668
  //            Monomer B HF           //
    Molecular point group: c1

    Geometry (in Bohr), charge = 0, multiplicity = 1:

       Center              X                  Y                   Z               Mass
    ------------   -----------------  -----------------  -----------------  -----------------
      Gh(N)           6.279812100000    -4.253033720000     0.193138650000    14.003074004430
      Gh(N)           6.068707770000    -2.281256970000     1.805443170000    14.003074004430
      Gh(H)           3.668711560000    -5.646289410000    -1.966840010000     1.007825032230
      Gh(H)           0.690345210000    -2.375456940000    -0.428642360000     1.007825032230
      Gh(H)           3.359174420000     0.176506010000     3.092650170000     1.007825032230
      Gh(H)           7.352667820000    -1.994613110000     2.906807020000     1.007825032230
      Gh(C)           3.779525860000    -1.215084530000     1.768581720000    12.000000000000
      Gh(C)           2.382429980000    -2.555055380000     0.046076810000    12.000000000000
      Gh(C)           4.017714680000    -4.384104900000    -0.887618630000    12.000000000000
         N           -9.197044870000    -4.253033720000   -12.605976400000    14.003074004430
         N           -9.408149200000    -2.281256970000   -10.993671880000    14.003074004430
         H          -11.808145410000    -5.646289410000   -14.765955060000     1.007825032230
         H          -14.786511760000    -2.375456940000   -13.227757410000     1.007825032230
         H          -12.117682550000     0.176506010000    -9.706464880000     1.007825032230
         H           -8.124189140000    -1.994613110000    -9.892308030000     1.007825032230
         C          -11.697331110000    -1.215084530000   -11.030533330000    12.000000000000
         C          -13.094426990000    -2.555055380000   -12.753038230000    12.000000000000
         C          -11.459142280000    -4.384104900000   -13.686733680000    12.000000000000

  Charge       = 0
  Multiplicity = 1
  Basis Set: AUG-CC-PVDZ
    Blend: AUG-CC-PVDZ
  Basis Set: (AUG-CC-PVDZ AUX)
    Blend: AUG-CC-PVDZ-JKFIT

    Orbital Energies [Eh]
    ---------------------

    Doubly Occupied:

       1A    -15.636223     2A    -15.592318     3A    -11.279893
       4A    -11.237784     5A    -11.209891     6A     -1.386922
       7A     -1.121902     8A     -1.066898     9A     -0.872768
      10A     -0.837061    11A     -0.757292    12A     -0.645746
      13A     -0.620834    14A     -0.609139    15A     -0.583920
      16A     -0.461404    17A     -0.370721    18A     -0.346047

  @DF-RHF Final Energy:  -224.76234386751807

   => Energetics <=

    Nuclear Repulsion Energy =            166.6240564818921825
    One-Electron Energy =                -633.4992752947566714
    Two-Electron Energy =                 242.1128749453464195
    Total Energy =                       -224.7623438675180694

  Dipole Moment: [D]
     X:    -1.0235      Y:     1.6056      Z:     1.4733     Total:     2.4075

    SAPT Results
  --------------------------------------------------------------------------------------------------------
    Electrostatics                  0.11633349 [mEh]       0.07300037 [kcal/mol]       0.30543354 [kJ/mol]
      Elst10,r                      0.11633349 [mEh]       0.07300037 [kcal/mol]       0.30543354 [kJ/mol]

    Exchange                        0.00000114 [mEh]       0.00000072 [kcal/mol]       0.00000301 [kJ/mol]
      Exch10                        0.00000114 [mEh]       0.00000072 [kcal/mol]       0.00000301 [kJ/mol]
      Exch10(S^2)                   0.00000114 [mEh]       0.00000072 [kcal/mol]       0.00000301 [kJ/mol]

    Induction                      -0.00175352 [mEh]      -0.00110035 [kcal/mol]      -0.00460386 [kJ/mol]
      Ind20,r                      -0.00165574 [mEh]      -0.00103899 [kcal/mol]      -0.00434714 [kJ/mol]
      Exch-Ind20,r                  0.00000506 [mEh]       0.00000317 [kcal/mol]       0.00001328 [kJ/mol]
      delta HF,r (2)               -0.00010284 [mEh]      -0.00006453 [kcal/mol]      -0.00027000 [kJ/mol]

    Dispersion                     -0.02378418 [mEh]      -0.01492480 [kcal/mol]      -0.06244535 [kJ/mol]
      Disp20                       -0.02378480 [mEh]      -0.01492519 [kcal/mol]      -0.06244698 [kJ/mol]
      Exch-Disp20                   0.00000062 [mEh]       0.00000039 [kcal/mol]       0.00000163 [kJ/mol]
      Disp20 (SS)                  -0.01189240 [mEh]      -0.00746259 [kcal/mol]      -0.03122349 [kJ/mol]
      Disp20 (OS)                  -0.01189240 [mEh]      -0.00746259 [kcal/mol]      -0.03122349 [kJ/mol]
      Exch-Disp20 (SS)              0.00000052 [mEh]       0.00000033 [kcal/mol]       0.00000137 [kJ/mol]
      Exch-Disp20 (OS)              0.00000010 [mEh]       0.00000006 [kcal/mol]       0.00000025 [kJ/mol]

  Total HF                          0.11458112 [mEh]       0.07190074 [kcal/mol]       0.30083269 [kJ/mol]
  Total SAPT0                       0.09079694 [mEh]       0.05697594 [kcal/mol]       0.23838733 [kJ/mol]

  Special recipe for scaled SAPT0 (see Manual):
    Electrostatics sSAPT0           0.11633349 [mEh]       0.07300037 [kcal/mol]       0.30543354 [kJ/mol]
    Exchange sSAPT0                 0.00000114 [mEh]       0.00000072 [kcal/mol]       0.00000301 [kJ/mol]
    Induction sSAPT0               -0.00175352 [mEh]      -0.00110035 [kcal/mol]      -0.00460386 [kJ/mol]
    Dispersion sSAPT0              -0.02378418 [mEh]      -0.01492480 [kcal/mol]      -0.06244535 [kJ/mol]
  Total sSAPT0                      0.09079694 [mEh]       0.05697594 [kcal/mol]       0.23838733 [kJ/mol]
  --------------------------------------------------------------------------------------------------------

*** Psi4 exiting successfully. Buy a developer a beer!
