                               Psi4 1.4rc3

  ==> Input File <==

--------------------------------------------------------------------------
# PSI4 file produced by CrystaLattE

# Generated from:               pyrazole.xyz
# Psithon input for N-mer:      2mer-0+66
# Number of atoms per monomer:  [9, 9]
# Number of replicas:           2
# COM priority:                 6.813790533419e-05
# Minimum COM separations:      12.956
# Separation priority:          1.455166843526e-04
# Minimum monomer separations:  10.061
# Cutoff priority:              7.653916514540e-06
# Nuclear repulsion energy:     386.24235335675513

memory 7 GB

molecule Dimer_0_66 {
  N            6.27981210      -4.25303372       0.19313865
  N            6.06870777      -2.28125697       1.80544317
  H            3.66871156      -5.64628941      -1.96684001
  H            0.69034521      -2.37545694      -0.42864236
  H            3.35917442       0.17650601       3.09265017
  H            7.35266782      -1.99461311       2.90680702
  C            3.77952586      -1.21508453       1.76858172
  C            2.38242998      -2.55505538       0.04607681
  C            4.01771468      -4.38410490      -0.88761863
--
  N           -9.19704487      16.25449114       6.59269617
  N           -9.40814920      14.28271439       8.20500069
  H          -11.80814541      17.64774683       4.43271751
  H          -14.78651176      14.37691436       5.97091516
  H          -12.11768255      11.82495140       9.49220769
  H           -8.12418914      13.99607052       9.30636454
  C          -11.69733111      13.21654194       8.16813924
  C          -13.09442699      14.55651280       6.44563434
  C          -11.45914228      16.38556231       5.51193890
units = au
no_com
no_reorient
}

set {
  e_convergence 10
  d_convergence 10
  scf_type df
  mp2_type df
  cc_type df
  freeze_core true
}

energy('sapt0/aug-cc-pvdz')

--------------------------------------------------------------------------

  //              Dimer HF             //
    Molecular point group: c1
  Charge       = 0
  Multiplicity = 1
  Basis Set: AUG-CC-PVDZ
    Blend: AUG-CC-PVDZ
  Basis Set: (AUG-CC-PVDZ AUX)
    Blend: AUG-CC-PVDZ-JKFIT
  @DF-RHF Final Energy:  -449.52465547393501
    Total Energy =                       -449.5246554739350131
  //            Monomer A HF           //
    Molecular point group: c1
  Multiplicity = 1
  Basis Set: AUG-CC-PVDZ
    Blend: AUG-CC-PVDZ
  Basis Set: (AUG-CC-PVDZ AUX)
    Blend: AUG-CC-PVDZ-JKFIT
  @DF-RHF Final Energy:  -224.76233983982456
    Total Energy =                       -224.7623398398245627
  //            Monomer B HF           //
    Molecular point group: c1

    Geometry (in Bohr), charge = 0, multiplicity = 1:

       Center              X                  Y                   Z               Mass
    ------------   -----------------  -----------------  -----------------  -----------------
      Gh(N)           6.279812100000    -4.253033720000     0.193138650000    14.003074004430
      Gh(N)           6.068707770000    -2.281256970000     1.805443170000    14.003074004430
      Gh(H)           3.668711560000    -5.646289410000    -1.966840010000     1.007825032230
      Gh(H)           0.690345210000    -2.375456940000    -0.428642360000     1.007825032230
      Gh(H)           3.359174420000     0.176506010000     3.092650170000     1.007825032230
      Gh(H)           7.352667820000    -1.994613110000     2.906807020000     1.007825032230
      Gh(C)           3.779525860000    -1.215084530000     1.768581720000    12.000000000000
      Gh(C)           2.382429980000    -2.555055380000     0.046076810000    12.000000000000
      Gh(C)           4.017714680000    -4.384104900000    -0.887618630000    12.000000000000
         N           -9.197044870000    16.254491140000     6.592696170000    14.003074004430
         N           -9.408149200000    14.282714390000     8.205000690000    14.003074004430
         H          -11.808145410000    17.647746830000     4.432717510000     1.007825032230
         H          -14.786511760000    14.376914360000     5.970915160000     1.007825032230
         H          -12.117682550000    11.824951400000     9.492207690000     1.007825032230
         H           -8.124189140000    13.996070520000     9.306364540000     1.007825032230
         C          -11.697331110000    13.216541940000     8.168139240000    12.000000000000
         C          -13.094426990000    14.556512800000     6.445634340000    12.000000000000
         C          -11.459142280000    16.385562310000     5.511938900000    12.000000000000

  Charge       = 0
  Multiplicity = 1
  Basis Set: AUG-CC-PVDZ
    Blend: AUG-CC-PVDZ
  Basis Set: (AUG-CC-PVDZ AUX)
    Blend: AUG-CC-PVDZ-JKFIT

    Orbital Energies [Eh]
    ---------------------

    Doubly Occupied:

       1A    -15.636223     2A    -15.592314     3A    -11.279894
       4A    -11.237784     5A    -11.209891     6A     -1.386922
       7A     -1.121901     8A     -1.066898     9A     -0.872768
      10A     -0.837061    11A     -0.757292    12A     -0.645746
      13A     -0.620834    14A     -0.609140    15A     -0.583920
      16A     -0.461404    17A     -0.370721    18A     -0.346048

  @DF-RHF Final Energy:  -224.76233979562227

   => Energetics <=

    Nuclear Repulsion Energy =            166.6240565013634125
    One-Electron Energy =                -633.4992745827603358
    Two-Electron Energy =                 242.1128782857746842
    Total Energy =                       -224.7623397956222675

  Dipole Moment: [D]
     X:    -1.0235      Y:    -1.6055      Z:     1.4732     Total:     2.4075

    SAPT Results
  --------------------------------------------------------------------------------------------------------
    Electrostatics                  0.02440013 [mEh]       0.01531132 [kcal/mol]       0.06406254 [kJ/mol]
      Elst10,r                      0.02440013 [mEh]       0.01531132 [kcal/mol]       0.06406254 [kJ/mol]

    Exchange                        0.00000037 [mEh]       0.00000023 [kcal/mol]       0.00000097 [kJ/mol]
      Exch10                        0.00000037 [mEh]       0.00000023 [kcal/mol]       0.00000097 [kJ/mol]
      Exch10(S^2)                   0.00000037 [mEh]       0.00000023 [kcal/mol]       0.00000097 [kJ/mol]

    Induction                      -0.00023899 [mEh]      -0.00014997 [kcal/mol]      -0.00062747 [kJ/mol]
      Ind20,r                      -0.00039462 [mEh]      -0.00024763 [kcal/mol]      -0.00103609 [kJ/mol]
      Exch-Ind20,r                  0.00000069 [mEh]       0.00000043 [kcal/mol]       0.00000180 [kJ/mol]
      delta HF,r (2)                0.00015495 [mEh]       0.00009723 [kcal/mol]       0.00040681 [kJ/mol]

    Dispersion                     -0.00585685 [mEh]      -0.00367523 [kcal/mol]      -0.01537716 [kJ/mol]
      Disp20                       -0.00585689 [mEh]      -0.00367526 [kcal/mol]      -0.01537727 [kJ/mol]
      Exch-Disp20                   0.00000004 [mEh]       0.00000003 [kcal/mol]       0.00000011 [kJ/mol]
      Disp20 (SS)                  -0.00292845 [mEh]      -0.00183763 [kcal/mol]      -0.00768864 [kJ/mol]
      Disp20 (OS)                  -0.00292845 [mEh]      -0.00183763 [kcal/mol]      -0.00768864 [kJ/mol]
      Exch-Disp20 (SS)              0.00000003 [mEh]       0.00000002 [kcal/mol]       0.00000009 [kJ/mol]
      Exch-Disp20 (OS)              0.00000001 [mEh]       0.00000001 [kcal/mol]       0.00000002 [kJ/mol]

  Total HF                          0.02416151 [mEh]       0.01516158 [kcal/mol]       0.06343604 [kJ/mol]
  Total SAPT0                       0.01830466 [mEh]       0.01148635 [kcal/mol]       0.04805888 [kJ/mol]

  Special recipe for scaled SAPT0 (see Manual):
    Electrostatics sSAPT0           0.02440013 [mEh]       0.01531132 [kcal/mol]       0.06406254 [kJ/mol]
    Exchange sSAPT0                 0.00000037 [mEh]       0.00000023 [kcal/mol]       0.00000097 [kJ/mol]
    Induction sSAPT0               -0.00023899 [mEh]      -0.00014997 [kcal/mol]      -0.00062747 [kJ/mol]
    Dispersion sSAPT0              -0.00585685 [mEh]      -0.00367523 [kcal/mol]      -0.01537716 [kJ/mol]
  Total sSAPT0                      0.01830466 [mEh]       0.01148635 [kcal/mol]       0.04805888 [kJ/mol]
  --------------------------------------------------------------------------------------------------------

*** Psi4 exiting successfully. Buy a developer a beer!
