                               Psi4 1.4rc3

  ==> Input File <==

--------------------------------------------------------------------------
# PSI4 file produced by CrystaLattE

# Generated from:               pyrazole.xyz
# Psithon input for N-mer:      2mer-0+53
# Number of atoms per monomer:  [9, 9]
# Number of replicas:           1
# COM priority:                 1.284043506227e-04
# Minimum COM separations:      10.489
# Separation priority:          2.995302069201e-04
# Minimum monomer separations:  7.909
# Cutoff priority:              2.004106678822e-05
# Nuclear repulsion energy:     398.2569437604993

memory 7 GB

molecule Dimer_0_53 {
  N            6.27981210      -4.25303372       0.19313865
  N            6.06870777      -2.28125697       1.80544317
  H            3.66871156      -5.64628941      -1.96684001
  H            0.69034521      -2.37545694      -0.42864236
  H            3.35917442       0.17650601       3.09265017
  H            7.35266782      -1.99461311       2.90680702
  C            3.77952586      -1.21508453       1.76858172
  C            2.38242998      -2.55505538       0.04607681
  C            4.01771468      -4.38410490      -0.88761863
--
  N           -4.94029013      -2.29338878      17.65689117
  N           -4.82142787      -4.33129582      19.19406489
  H           -2.26712739       0.10752118      16.93886082
  H            0.62750917      -2.33501756      19.69399832
  H           -2.30891491      -6.04806657      21.59863463
  H           -6.28383608      -5.14127288      19.57983022
  C           -2.53859146      -4.66147149      20.22311374
  C           -1.05559903      -2.73179927      19.33319127
  C           -2.61690436      -1.34663146      17.74149332
units = au
no_com
no_reorient
}

set {
  e_convergence 10
  d_convergence 10
  scf_type df
  mp2_type df
  cc_type df
  freeze_core true
}

energy('sapt0/aug-cc-pvdz')

--------------------------------------------------------------------------

  //              Dimer HF             //
    Molecular point group: c1
  Charge       = 0
  Multiplicity = 1
  Basis Set: AUG-CC-PVDZ
    Blend: AUG-CC-PVDZ
  Basis Set: (AUG-CC-PVDZ AUX)
    Blend: AUG-CC-PVDZ-JKFIT
  @DF-RHF Final Energy:  -449.52483390501078
    Total Energy =                       -449.5248339050108370
  //            Monomer A HF           //
    Molecular point group: c1
  Multiplicity = 1
  Basis Set: AUG-CC-PVDZ
    Blend: AUG-CC-PVDZ
  Basis Set: (AUG-CC-PVDZ AUX)
    Blend: AUG-CC-PVDZ-JKFIT
  @DF-RHF Final Energy:  -224.76234432747134
    Total Energy =                       -224.7623443274713395
  //            Monomer B HF           //
    Molecular point group: c1

    Geometry (in Bohr), charge = 0, multiplicity = 1:

       Center              X                  Y                   Z               Mass
    ------------   -----------------  -----------------  -----------------  -----------------
      Gh(N)           6.279812100000    -4.253033720000     0.193138650000    14.003074004430
      Gh(N)           6.068707770000    -2.281256970000     1.805443170000    14.003074004430
      Gh(H)           3.668711560000    -5.646289410000    -1.966840010000     1.007825032230
      Gh(H)           0.690345210000    -2.375456940000    -0.428642360000     1.007825032230
      Gh(H)           3.359174420000     0.176506010000     3.092650170000     1.007825032230
      Gh(H)           7.352667820000    -1.994613110000     2.906807020000     1.007825032230
      Gh(C)           3.779525860000    -1.215084530000     1.768581720000    12.000000000000
      Gh(C)           2.382429980000    -2.555055380000     0.046076810000    12.000000000000
      Gh(C)           4.017714680000    -4.384104900000    -0.887618630000    12.000000000000
         N           -4.940290130000    -2.293388780000    17.656891170000    14.003074004430
         N           -4.821427870000    -4.331295820000    19.194064890000    14.003074004430
         H           -2.267127390000     0.107521180000    16.938860820000     1.007825032230
         H            0.627509170000    -2.335017560000    19.693998320000     1.007825032230
         H           -2.308914910000    -6.048066570000    21.598634630000     1.007825032230
         H           -6.283836080000    -5.141272880000    19.579830220000     1.007825032230
         C           -2.538591460000    -4.661471490000    20.223113740000    12.000000000000
         C           -1.055599030000    -2.731799270000    19.333191270000    12.000000000000
         C           -2.616904360000    -1.346631460000    17.741493320000    12.000000000000

  Charge       = 0
  Multiplicity = 1
  Basis Set: AUG-CC-PVDZ
    Blend: AUG-CC-PVDZ
  Basis Set: (AUG-CC-PVDZ AUX)
    Blend: AUG-CC-PVDZ-JKFIT

    Orbital Energies [Eh]
    ---------------------

    Doubly Occupied:

       1A    -15.636234     2A    -15.592291     3A    -11.279904
       4A    -11.237755     5A    -11.209884     6A     -1.387002
       7A     -1.121894     8A     -1.066928     9A     -0.872759
      10A     -0.837039    11A     -0.757272    12A     -0.645746
      13A     -0.620828    14A     -0.609177    15A     -0.583906
      16A     -0.461413    17A     -0.370715    18A     -0.346055

  @DF-RHF Final Energy:  -224.76243925121605

   => Energetics <=

    Nuclear Repulsion Energy =            166.6286026903198092
    One-Electron Energy =                -633.5084784882396889
    Two-Electron Energy =                 242.1174365467038569
    Total Energy =                       -224.7624392512160512

  Dipole Moment: [D]
     X:     0.7396      Y:    -1.4338      Z:     1.7871     Total:     2.4076

    SAPT Results
  --------------------------------------------------------------------------------------------------------
    Electrostatics                 -0.04904499 [mEh]      -0.03077619 [kcal/mol]      -0.12876760 [kJ/mol]
      Elst10,r                     -0.04904499 [mEh]      -0.03077619 [kcal/mol]      -0.12876760 [kJ/mol]

    Exchange                        0.00000198 [mEh]       0.00000124 [kcal/mol]       0.00000520 [kJ/mol]
      Exch10                        0.00000198 [mEh]       0.00000124 [kcal/mol]       0.00000520 [kJ/mol]
      Exch10(S^2)                   0.00000198 [mEh]       0.00000124 [kcal/mol]       0.00000520 [kJ/mol]

    Induction                      -0.00128332 [mEh]      -0.00080529 [kcal/mol]      -0.00336935 [kJ/mol]
      Ind20,r                      -0.00148550 [mEh]      -0.00093216 [kcal/mol]      -0.00390017 [kJ/mol]
      Exch-Ind20,r                  0.00000592 [mEh]       0.00000371 [kcal/mol]       0.00001554 [kJ/mol]
      delta HF,r (2)                0.00019626 [mEh]       0.00012315 [kcal/mol]       0.00051528 [kJ/mol]

    Dispersion                     -0.01973445 [mEh]      -0.01238355 [kcal/mol]      -0.05181278 [kJ/mol]
      Disp20                       -0.01973507 [mEh]      -0.01238395 [kcal/mol]      -0.05181443 [kJ/mol]
      Exch-Disp20                   0.00000063 [mEh]       0.00000039 [kcal/mol]       0.00000165 [kJ/mol]
      Disp20 (SS)                  -0.00986754 [mEh]      -0.00619197 [kcal/mol]      -0.02590721 [kJ/mol]
      Disp20 (OS)                  -0.00986754 [mEh]      -0.00619197 [kcal/mol]      -0.02590721 [kJ/mol]
      Exch-Disp20 (SS)              0.00000054 [mEh]       0.00000034 [kcal/mol]       0.00000141 [kJ/mol]
      Exch-Disp20 (OS)              0.00000009 [mEh]       0.00000006 [kcal/mol]       0.00000023 [kJ/mol]

  Total HF                         -0.05032632 [mEh]      -0.03158024 [kcal/mol]      -0.13213174 [kJ/mol]
  Total SAPT0                      -0.07006077 [mEh]      -0.04396380 [kcal/mol]      -0.18394452 [kJ/mol]

  Special recipe for scaled SAPT0 (see Manual):
    Electrostatics sSAPT0          -0.04904499 [mEh]      -0.03077619 [kcal/mol]      -0.12876760 [kJ/mol]
    Exchange sSAPT0                 0.00000198 [mEh]       0.00000124 [kcal/mol]       0.00000520 [kJ/mol]
    Induction sSAPT0               -0.00128332 [mEh]      -0.00080529 [kcal/mol]      -0.00336935 [kJ/mol]
    Dispersion sSAPT0              -0.01973445 [mEh]      -0.01238355 [kcal/mol]      -0.05181278 [kJ/mol]
  Total sSAPT0                     -0.07006077 [mEh]      -0.04396380 [kcal/mol]      -0.18394452 [kJ/mol]
  --------------------------------------------------------------------------------------------------------

*** Psi4 exiting successfully. Buy a developer a beer!
