                               Psi4 1.4rc3

  ==> Input File <==

--------------------------------------------------------------------------
# PSI4 file produced by CrystaLattE

# Generated from:               pyrazole.xyz
# Psithon input for N-mer:      2mer-0+233
# Number of atoms per monomer:  [9, 9]
# Number of replicas:           1
# COM priority:                 3.954520739282e-05
# Minimum COM separations:      15.532
# Separation priority:          6.273700874640e-05
# Minimum monomer separations:  13.318
# Cutoff priority:              2.492862994305e-06
# Nuclear repulsion energy:     377.2941770206131

memory 7 GB

molecule Dimer_0_233 {
  N            6.27981210      -4.25303372       0.19313865
  N            6.06870777      -2.28125697       1.80544317
  H            3.66871156      -5.64628941      -1.96684001
  H            0.69034521      -2.37545694      -0.42864236
  H            3.35917442       0.17650601       3.09265017
  H            7.35266782      -1.99461311       2.90680702
  C            3.77952586      -1.21508453       1.76858172
  C            2.38242998      -2.55505538       0.04607681
  C            4.01771468      -4.38410490      -0.88761863
--
  N           26.01342381      14.29484620      -1.54178140
  N           26.13228607      16.33275324      -0.00460768
  H           28.68658654      11.89393623      -2.25981175
  H           31.58122310      14.33647498       0.49532575
  H           28.64479903      18.04952399       2.39996206
  H           24.66987785      17.14273029       0.38115765
  C           28.41512247      16.66292891       1.02444117
  C           29.89811491      14.73325669       0.13451870
  C           28.33680957      13.34808888      -1.45717925
units = au
no_com
no_reorient
}

set {
  e_convergence 10
  d_convergence 10
  scf_type df
  mp2_type df
  cc_type df
  freeze_core true
}

energy('sapt0/aug-cc-pvdz')

--------------------------------------------------------------------------

  //              Dimer HF             //
    Molecular point group: c1
  Charge       = 0
  Multiplicity = 1
  Basis Set: AUG-CC-PVDZ
    Blend: AUG-CC-PVDZ
  Basis Set: (AUG-CC-PVDZ AUX)
    Blend: AUG-CC-PVDZ-JKFIT
  @DF-RHF Final Energy:  -449.52474666049250
    Total Energy =                       -449.5247466604924966
  //            Monomer A HF           //
    Molecular point group: c1
  Multiplicity = 1
  Basis Set: AUG-CC-PVDZ
    Blend: AUG-CC-PVDZ
  Basis Set: (AUG-CC-PVDZ AUX)
    Blend: AUG-CC-PVDZ-JKFIT
  @DF-RHF Final Energy:  -224.76233952413236
    Total Energy =                       -224.7623395241323578
  //            Monomer B HF           //
    Molecular point group: c1

    Geometry (in Bohr), charge = 0, multiplicity = 1:

       Center              X                  Y                   Z               Mass
    ------------   -----------------  -----------------  -----------------  -----------------
      Gh(N)           6.279812100000    -4.253033720000     0.193138650000    14.003074004430
      Gh(N)           6.068707770000    -2.281256970000     1.805443170000    14.003074004430
      Gh(H)           3.668711560000    -5.646289410000    -1.966840010000     1.007825032230
      Gh(H)           0.690345210000    -2.375456940000    -0.428642360000     1.007825032230
      Gh(H)           3.359174420000     0.176506010000     3.092650170000     1.007825032230
      Gh(H)           7.352667820000    -1.994613110000     2.906807020000     1.007825032230
      Gh(C)           3.779525860000    -1.215084530000     1.768581720000    12.000000000000
      Gh(C)           2.382429980000    -2.555055380000     0.046076810000    12.000000000000
      Gh(C)           4.017714680000    -4.384104900000    -0.887618630000    12.000000000000
         N           26.013423810000    14.294846200000    -1.541781400000    14.003074004430
         N           26.132286070000    16.332753240000    -0.004607680000    14.003074004430
         H           28.686586540000    11.893936230000    -2.259811750000     1.007825032230
         H           31.581223100000    14.336474980000     0.495325750000     1.007825032230
         H           28.644799030000    18.049523990000     2.399962060000     1.007825032230
         H           24.669877850000    17.142730290000     0.381157650000     1.007825032230
         C           28.415122470000    16.662928910000     1.024441170000    12.000000000000
         C           29.898114910000    14.733256690000     0.134518700000    12.000000000000
         C           28.336809570000    13.348088880000    -1.457179250000    12.000000000000

  Charge       = 0
  Multiplicity = 1
  Basis Set: AUG-CC-PVDZ
    Blend: AUG-CC-PVDZ
  Basis Set: (AUG-CC-PVDZ AUX)
    Blend: AUG-CC-PVDZ-JKFIT

    Orbital Energies [Eh]
    ---------------------

    Doubly Occupied:

       1A    -15.636233     2A    -15.592291     3A    -11.279903
       4A    -11.237759     5A    -11.209884     6A     -1.387001
       7A     -1.121894     8A     -1.066928     9A     -0.872759
      10A     -0.837039    11A     -0.757272    12A     -0.645745
      13A     -0.620828    14A     -0.609177    15A     -0.583905
      16A     -0.461413    17A     -0.370715    18A     -0.346055

  @DF-RHF Final Energy:  -224.76243506445260

   => Energetics <=

    Nuclear Repulsion Energy =            166.6286027674977106
    One-Electron Energy =                -633.5084733291562316
    Two-Electron Energy =                 242.1174354972059461
    Total Energy =                       -224.7624350644526032

  Dipole Moment: [D]
     X:     0.7394      Y:     1.4336      Z:     1.7871     Total:     2.4074

    SAPT Results
  --------------------------------------------------------------------------------------------------------
    Electrostatics                  0.02800218 [mEh]       0.01757164 [kcal/mol]       0.07351972 [kJ/mol]
      Elst10,r                      0.02800218 [mEh]       0.01757164 [kcal/mol]       0.07351972 [kJ/mol]

    Exchange                        0.00000000 [mEh]       0.00000000 [kcal/mol]       0.00000000 [kJ/mol]
      Exch10                        0.00000000 [mEh]       0.00000000 [kcal/mol]       0.00000000 [kJ/mol]
      Exch10(S^2)                   0.00000000 [mEh]       0.00000000 [kcal/mol]       0.00000000 [kJ/mol]

    Induction                      -0.00007409 [mEh]      -0.00004649 [kcal/mol]      -0.00019452 [kJ/mol]
      Ind20,r                      -0.00013658 [mEh]      -0.00008570 [kcal/mol]      -0.00035858 [kJ/mol]
      Exch-Ind20,r                  0.00000000 [mEh]       0.00000000 [kcal/mol]       0.00000000 [kJ/mol]
      delta HF,r (2)                0.00006249 [mEh]       0.00003921 [kcal/mol]       0.00016406 [kJ/mol]

    Dispersion                     -0.00173131 [mEh]      -0.00108641 [kcal/mol]      -0.00454556 [kJ/mol]
      Disp20                       -0.00173131 [mEh]      -0.00108641 [kcal/mol]      -0.00454556 [kJ/mol]
      Exch-Disp20                   0.00000000 [mEh]       0.00000000 [kcal/mol]       0.00000000 [kJ/mol]
      Disp20 (SS)                  -0.00086566 [mEh]      -0.00054321 [kcal/mol]      -0.00227278 [kJ/mol]
      Disp20 (OS)                  -0.00086566 [mEh]      -0.00054321 [kcal/mol]      -0.00227278 [kJ/mol]
      Exch-Disp20 (SS)              0.00000000 [mEh]       0.00000000 [kcal/mol]       0.00000000 [kJ/mol]
      Exch-Disp20 (OS)              0.00000000 [mEh]       0.00000000 [kcal/mol]       0.00000000 [kJ/mol]

  Total HF                          0.02792809 [mEh]       0.01752514 [kcal/mol]       0.07332520 [kJ/mol]
  Total SAPT0                       0.02619678 [mEh]       0.01643873 [kcal/mol]       0.06877964 [kJ/mol]

  Special recipe for scaled SAPT0 (see Manual):
    Electrostatics sSAPT0           0.02800218 [mEh]       0.01757164 [kcal/mol]       0.07351972 [kJ/mol]
    Exchange sSAPT0                 0.00000000 [mEh]       0.00000000 [kcal/mol]       0.00000000 [kJ/mol]
    Induction sSAPT0               -0.00007409 [mEh]      -0.00004649 [kcal/mol]      -0.00019452 [kJ/mol]
    Dispersion sSAPT0              -0.00173131 [mEh]      -0.00108641 [kcal/mol]      -0.00454556 [kJ/mol]
  Total sSAPT0                      0.02619678 [mEh]       0.01643873 [kcal/mol]       0.06877964 [kJ/mol]
  --------------------------------------------------------------------------------------------------------

*** Psi4 exiting successfully. Buy a developer a beer!
