                               Psi4 1.4rc3

  ==> Input File <==

--------------------------------------------------------------------------
# PSI4 file produced by CrystaLattE

# Generated from:               pyrazole.xyz
# Psithon input for N-mer:      2mer-0+459
# Number of atoms per monomer:  [9, 9]
# Number of replicas:           1
# COM priority:                 1.801106614582e-05
# Minimum COM separations:      20.188
# Separation priority:          3.301765069396e-05
# Minimum monomer separations:  16.495
# Cutoff priority:              1.059241265608e-06
# Nuclear repulsion energy:     367.22833403314735

memory 7 GB

molecule Dimer_0_459 {
  N            6.27981210      -4.25303372       0.19313865
  N            6.06870777      -2.28125697       1.80544317
  H            3.66871156      -5.64628941      -1.96684001
  H            0.69034521      -2.37545694      -0.42864236
  H            3.35917442       0.17650601       3.09265017
  H            7.35266782      -1.99461311       2.90680702
  C            3.77952586      -1.21508453       1.76858172
  C            2.38242998      -2.55505538       0.04607681
  C            4.01771468      -4.38410490      -0.88761863
--
  N            2.79813836     -37.97519749     -11.21125683
  N            2.91700062     -40.01310452     -12.74843055
  H            5.47130109     -35.57428752     -10.49322648
  H            8.36593765     -38.01682626     -13.24836399
  H            5.42951358     -41.72987528     -15.15300030
  H            1.45459240     -40.82308158     -13.13419588
  C            5.19983702     -40.34328019     -13.77747940
  C            6.68282945     -38.41360798     -12.88755693
  C            5.12152412     -37.02844016     -11.29585899
units = au
no_com
no_reorient
}

set {
  e_convergence 10
  d_convergence 10
  scf_type df
  mp2_type df
  cc_type df
  freeze_core true
}

energy('sapt0/aug-cc-pvdz')

--------------------------------------------------------------------------

  //              Dimer HF             //
    Molecular point group: c1
  Charge       = 0
  Multiplicity = 1
  Basis Set: AUG-CC-PVDZ
    Blend: AUG-CC-PVDZ
  Basis Set: (AUG-CC-PVDZ AUX)
    Blend: AUG-CC-PVDZ-JKFIT
  @DF-RHF Final Energy:  -449.52476669656227
    Total Energy =                       -449.5247666965623239
  //            Monomer A HF           //
    Molecular point group: c1
  Multiplicity = 1
  Basis Set: AUG-CC-PVDZ
    Blend: AUG-CC-PVDZ
  Basis Set: (AUG-CC-PVDZ AUX)
    Blend: AUG-CC-PVDZ-JKFIT
  @DF-RHF Final Energy:  -224.76233952010301
    Total Energy =                       -224.7623395201030121
  //            Monomer B HF           //
    Molecular point group: c1

    Geometry (in Bohr), charge = 0, multiplicity = 1:

       Center              X                  Y                   Z               Mass
    ------------   -----------------  -----------------  -----------------  -----------------
      Gh(N)           6.279812100000    -4.253033720000     0.193138650000    14.003074004430
      Gh(N)           6.068707770000    -2.281256970000     1.805443170000    14.003074004430
      Gh(H)           3.668711560000    -5.646289410000    -1.966840010000     1.007825032230
      Gh(H)           0.690345210000    -2.375456940000    -0.428642360000     1.007825032230
      Gh(H)           3.359174420000     0.176506010000     3.092650170000     1.007825032230
      Gh(H)           7.352667820000    -1.994613110000     2.906807020000     1.007825032230
      Gh(C)           3.779525860000    -1.215084530000     1.768581720000    12.000000000000
      Gh(C)           2.382429980000    -2.555055380000     0.046076810000    12.000000000000
      Gh(C)           4.017714680000    -4.384104900000    -0.887618630000    12.000000000000
         N            2.798138360000   -37.975197490000   -11.211256830000    14.003074004430
         N            2.917000620000   -40.013104520000   -12.748430550000    14.003074004430
         H            5.471301090000   -35.574287520000   -10.493226480000     1.007825032230
         H            8.365937650000   -38.016826260000   -13.248363990000     1.007825032230
         H            5.429513580000   -41.729875280000   -15.153000300000     1.007825032230
         H            1.454592400000   -40.823081580000   -13.134195880000     1.007825032230
         C            5.199837020000   -40.343280190000   -13.777479400000    12.000000000000
         C            6.682829450000   -38.413607980000   -12.887556930000    12.000000000000
         C            5.121524120000   -37.028440160000   -11.295858990000    12.000000000000

  Charge       = 0
  Multiplicity = 1
  Basis Set: AUG-CC-PVDZ
    Blend: AUG-CC-PVDZ
  Basis Set: (AUG-CC-PVDZ AUX)
    Blend: AUG-CC-PVDZ-JKFIT

    Orbital Energies [Eh]
    ---------------------

    Doubly Occupied:

       1A    -15.636233     2A    -15.592291     3A    -11.279903
       4A    -11.237759     5A    -11.209884     6A     -1.387001
       7A     -1.121894     8A     -1.066928     9A     -0.872759
      10A     -0.837039    11A     -0.757272    12A     -0.645745
      13A     -0.620828    14A     -0.609177    15A     -0.583905
      16A     -0.461413    17A     -0.370715    18A     -0.346055

  @DF-RHF Final Energy:  -224.76243506476862

   => Energetics <=

    Nuclear Repulsion Energy =            166.6286029391153818
    One-Electron Energy =                -633.5084736703214503
    Two-Electron Energy =                 242.1174356664374727
    Total Energy =                       -224.7624350647686242

  Dipole Moment: [D]
     X:     0.7394      Y:    -1.4336      Z:    -1.7871     Total:     2.4074

    SAPT Results
  --------------------------------------------------------------------------------------------------------
    Electrostatics                  0.00784931 [mEh]       0.00492552 [kcal/mol]       0.02060836 [kJ/mol]
      Elst10,r                      0.00784931 [mEh]       0.00492552 [kcal/mol]       0.02060836 [kJ/mol]

    Exchange                        0.00000000 [mEh]       0.00000000 [kcal/mol]       0.00000000 [kJ/mol]
      Exch10                        0.00000000 [mEh]       0.00000000 [kcal/mol]       0.00000000 [kJ/mol]
      Exch10(S^2)                   0.00000000 [mEh]       0.00000000 [kcal/mol]       0.00000000 [kJ/mol]

    Induction                       0.00003900 [mEh]       0.00002447 [kcal/mol]       0.00010239 [kJ/mol]
      Ind20,r                      -0.00003241 [mEh]      -0.00002034 [kcal/mol]      -0.00008509 [kJ/mol]
      Exch-Ind20,r                  0.00000000 [mEh]       0.00000000 [kcal/mol]       0.00000000 [kJ/mol]
      delta HF,r (2)                0.00007141 [mEh]       0.00004481 [kcal/mol]       0.00018747 [kJ/mol]

    Dispersion                     -0.00040992 [mEh]      -0.00025723 [kcal/mol]      -0.00107623 [kJ/mol]
      Disp20                       -0.00040992 [mEh]      -0.00025723 [kcal/mol]      -0.00107623 [kJ/mol]
      Exch-Disp20                   0.00000000 [mEh]       0.00000000 [kcal/mol]       0.00000000 [kJ/mol]
      Disp20 (SS)                  -0.00020496 [mEh]      -0.00012861 [kcal/mol]      -0.00053812 [kJ/mol]
      Disp20 (OS)                  -0.00020496 [mEh]      -0.00012861 [kcal/mol]      -0.00053812 [kJ/mol]
      Exch-Disp20 (SS)              0.00000000 [mEh]       0.00000000 [kcal/mol]       0.00000000 [kJ/mol]
      Exch-Disp20 (OS)              0.00000000 [mEh]       0.00000000 [kcal/mol]       0.00000000 [kJ/mol]

  Total HF                          0.00788831 [mEh]       0.00494999 [kcal/mol]       0.02071075 [kJ/mol]
  Total SAPT0                       0.00747839 [mEh]       0.00469276 [kcal/mol]       0.01963452 [kJ/mol]

  Special recipe for scaled SAPT0 (see Manual):
    Electrostatics sSAPT0           0.00784931 [mEh]       0.00492552 [kcal/mol]       0.02060836 [kJ/mol]
    Exchange sSAPT0                 0.00000000 [mEh]       0.00000000 [kcal/mol]       0.00000000 [kJ/mol]
    Induction sSAPT0                0.00003900 [mEh]       0.00002447 [kcal/mol]       0.00010239 [kJ/mol]
    Dispersion sSAPT0              -0.00040992 [mEh]      -0.00025723 [kcal/mol]      -0.00107623 [kJ/mol]
  Total sSAPT0                      0.00747839 [mEh]       0.00469276 [kcal/mol]       0.01963452 [kJ/mol]
  --------------------------------------------------------------------------------------------------------

*** Psi4 exiting successfully. Buy a developer a beer!
