                               Psi4 1.4rc3

  ==> Input File <==

--------------------------------------------------------------------------
# PSI4 file produced by CrystaLattE

# Generated from:               pyrazole.xyz
# Psithon input for N-mer:      2mer-0+220
# Number of atoms per monomer:  [9, 9]
# Number of replicas:           2
# COM priority:                 2.927119043594e-05
# Minimum COM separations:      17.171
# Separation priority:          5.018494045192e-05
# Minimum monomer separations:  14.346
# Cutoff priority:              1.851105697608e-06
# Nuclear repulsion energy:     373.2340052561657

memory 7 GB

molecule Dimer_0_220 {
  N            6.27981210      -4.25303372       0.19313865
  N            6.06870777      -2.28125697       1.80544317
  H            3.66871156      -5.64628941      -1.96684001
  H            0.69034521      -2.37545694      -0.42864236
  H            3.35917442       0.17650601       3.09265017
  H            7.35266782      -1.99461311       2.90680702
  C            3.77952586      -1.21508453       1.76858172
  C            2.38242998      -2.55505538       0.04607681
  C            4.01771468      -4.38410490      -0.88761863
--
  N          -16.93547335     -19.42731757     -12.94617688
  N          -17.14657768     -21.39909431     -14.55848140
  H          -19.54657389     -18.03406187     -10.78619822
  H          -22.52494025     -21.30489434     -12.32439587
  H          -19.85611103     -23.85685730     -15.84568840
  H          -15.86261763     -21.68573818     -15.65984525
  C          -19.43575960     -22.46526676     -14.52161995
  C          -20.83285547     -21.12529590     -12.79911505
  C          -19.19757077     -19.29624639     -11.86541960
units = au
no_com
no_reorient
}

set {
  e_convergence 10
  d_convergence 10
  scf_type df
  mp2_type df
  cc_type df
  freeze_core true
}

energy('sapt0/aug-cc-pvdz')

--------------------------------------------------------------------------

  //              Dimer HF             //
    Molecular point group: c1
  Charge       = 0
  Multiplicity = 1
  Basis Set: AUG-CC-PVDZ
    Blend: AUG-CC-PVDZ
  Basis Set: (AUG-CC-PVDZ AUX)
    Blend: AUG-CC-PVDZ-JKFIT
  @DF-RHF Final Energy:  -449.52468223640676
    Total Energy =                       -449.5246822364067611
  //            Monomer A HF           //
    Molecular point group: c1
  Multiplicity = 1
  Basis Set: AUG-CC-PVDZ
    Blend: AUG-CC-PVDZ
  Basis Set: (AUG-CC-PVDZ AUX)
    Blend: AUG-CC-PVDZ-JKFIT
  @DF-RHF Final Energy:  -224.76233951954302
    Total Energy =                       -224.7623395195430192
  //            Monomer B HF           //
    Molecular point group: c1

    Geometry (in Bohr), charge = 0, multiplicity = 1:

       Center              X                  Y                   Z               Mass
    ------------   -----------------  -----------------  -----------------  -----------------
      Gh(N)           6.279812100000    -4.253033720000     0.193138650000    14.003074004430
      Gh(N)           6.068707770000    -2.281256970000     1.805443170000    14.003074004430
      Gh(H)           3.668711560000    -5.646289410000    -1.966840010000     1.007825032230
      Gh(H)           0.690345210000    -2.375456940000    -0.428642360000     1.007825032230
      Gh(H)           3.359174420000     0.176506010000     3.092650170000     1.007825032230
      Gh(H)           7.352667820000    -1.994613110000     2.906807020000     1.007825032230
      Gh(C)           3.779525860000    -1.215084530000     1.768581720000    12.000000000000
      Gh(C)           2.382429980000    -2.555055380000     0.046076810000    12.000000000000
      Gh(C)           4.017714680000    -4.384104900000    -0.887618630000    12.000000000000
         N          -16.935473350000   -19.427317570000   -12.946176880000    14.003074004430
         N          -17.146577680000   -21.399094310000   -14.558481400000    14.003074004430
         H          -19.546573890000   -18.034061870000   -10.786198220000     1.007825032230
         H          -22.524940250000   -21.304894340000   -12.324395870000     1.007825032230
         H          -19.856111030000   -23.856857300000   -15.845688400000     1.007825032230
         H          -15.862617630000   -21.685738180000   -15.659845250000     1.007825032230
         C          -19.435759600000   -22.465266760000   -14.521619950000    12.000000000000
         C          -20.832855470000   -21.125295900000   -12.799115050000    12.000000000000
         C          -19.197570770000   -19.296246390000   -11.865419600000    12.000000000000

  Charge       = 0
  Multiplicity = 1
  Basis Set: AUG-CC-PVDZ
    Blend: AUG-CC-PVDZ
  Basis Set: (AUG-CC-PVDZ AUX)
    Blend: AUG-CC-PVDZ-JKFIT

    Orbital Energies [Eh]
    ---------------------

    Doubly Occupied:

       1A    -15.636223     2A    -15.592313     3A    -11.279894
       4A    -11.237784     5A    -11.209891     6A     -1.386922
       7A     -1.121901     8A     -1.066898     9A     -0.872768
      10A     -0.837061    11A     -0.757292    12A     -0.645746
      13A     -0.620834    14A     -0.609140    15A     -0.583920
      16A     -0.461404    17A     -0.370721    18A     -0.346048

  @DF-RHF Final Energy:  -224.76233952661224

   => Energetics <=

    Nuclear Repulsion Energy =            166.6240564376193163
    One-Electron Energy =                -633.4992733820513422
    Two-Electron Energy =                 242.1128774178198171
    Total Energy =                       -224.7623395266122373

  Dipole Moment: [D]
     X:    -1.0235      Y:    -1.6055      Z:    -1.4733     Total:     2.4075

    SAPT Results
  --------------------------------------------------------------------------------------------------------
    Electrostatics                 -0.00317382 [mEh]      -0.00199160 [kcal/mol]      -0.00833285 [kJ/mol]
      Elst10,r                     -0.00317382 [mEh]      -0.00199160 [kcal/mol]      -0.00833285 [kJ/mol]

    Exchange                        0.00000000 [mEh]       0.00000000 [kcal/mol]       0.00000000 [kJ/mol]
      Exch10                        0.00000000 [mEh]       0.00000000 [kcal/mol]       0.00000000 [kJ/mol]
      Exch10(S^2)                   0.00000000 [mEh]       0.00000000 [kcal/mol]       0.00000000 [kJ/mol]

    Induction                      -0.00001643 [mEh]      -0.00001031 [kcal/mol]      -0.00004315 [kJ/mol]
      Ind20,r                      -0.00010759 [mEh]      -0.00006752 [kcal/mol]      -0.00028249 [kJ/mol]
      Exch-Ind20,r                  0.00000000 [mEh]       0.00000000 [kcal/mol]       0.00000000 [kJ/mol]
      delta HF,r (2)                0.00009116 [mEh]       0.00005720 [kcal/mol]       0.00023934 [kJ/mol]

    Dispersion                     -0.00113969 [mEh]      -0.00071517 [kcal/mol]      -0.00299227 [kJ/mol]
      Disp20                       -0.00113969 [mEh]      -0.00071517 [kcal/mol]      -0.00299227 [kJ/mol]
      Exch-Disp20                   0.00000000 [mEh]       0.00000000 [kcal/mol]       0.00000000 [kJ/mol]
      Disp20 (SS)                  -0.00056985 [mEh]      -0.00035758 [kcal/mol]      -0.00149613 [kJ/mol]
      Disp20 (OS)                  -0.00056985 [mEh]      -0.00035758 [kcal/mol]      -0.00149613 [kJ/mol]
      Exch-Disp20 (SS)              0.00000000 [mEh]       0.00000000 [kcal/mol]       0.00000000 [kJ/mol]
      Exch-Disp20 (OS)              0.00000000 [mEh]       0.00000000 [kcal/mol]       0.00000000 [kJ/mol]

  Total HF                         -0.00319025 [mEh]      -0.00200191 [kcal/mol]      -0.00837600 [kJ/mol]
  Total SAPT0                      -0.00432995 [mEh]      -0.00271708 [kcal/mol]      -0.01136827 [kJ/mol]

  Special recipe for scaled SAPT0 (see Manual):
    Electrostatics sSAPT0          -0.00317382 [mEh]      -0.00199160 [kcal/mol]      -0.00833285 [kJ/mol]
    Exchange sSAPT0                 0.00000000 [mEh]       0.00000000 [kcal/mol]       0.00000000 [kJ/mol]
    Induction sSAPT0               -0.00001643 [mEh]      -0.00001031 [kcal/mol]      -0.00004315 [kJ/mol]
    Dispersion sSAPT0              -0.00113969 [mEh]      -0.00071517 [kcal/mol]      -0.00299227 [kJ/mol]
  Total sSAPT0                     -0.00432995 [mEh]      -0.00271708 [kcal/mol]      -0.01136827 [kJ/mol]
  --------------------------------------------------------------------------------------------------------

*** Psi4 exiting successfully. Buy a developer a beer!
