                               Psi4 1.4rc3

  ==> Input File <==

--------------------------------------------------------------------------
# PSI4 file produced by CrystaLattE

# Generated from:               pyrazole.xyz
# Psithon input for N-mer:      2mer-0+337
# Number of atoms per monomer:  [9, 9]
# Number of replicas:           1
# COM priority:                 2.843492055941e-05
# Minimum COM separations:      17.337
# Separation priority:          3.699683523945e-05
# Minimum monomer separations:  15.881
# Cutoff priority:              1.232781477990e-06
# Nuclear repulsion energy:     372.66788232742397

memory 7 GB

molecule Dimer_0_337 {
  N            6.27981210      -4.25303372       0.19313865
  N            6.06870777      -2.28125697       1.80544317
  H            3.66871156      -5.64628941      -1.96684001
  H            0.69034521      -2.37545694      -0.42864236
  H            3.35917442       0.17650601       3.09265017
  H            7.35266782      -1.99461311       2.90680702
  C            3.77952586      -1.21508453       1.76858172
  C            2.38242998      -2.55505538       0.04607681
  C            4.01771468      -4.38410490      -0.88761863
--
  N           -4.94029013     -33.28089873      11.25733365
  N           -4.82142787     -31.24299170      12.79450737
  H           -2.26712739     -35.68180870      10.53930329
  H            0.62750917     -33.23926996      13.29444080
  H           -2.30891491     -29.52622094      15.19907711
  H           -6.28383608     -30.43301464      13.18027269
  C           -2.53859146     -30.91281603      13.82355622
  C           -1.05559903     -32.84248824      12.93363375
  C           -2.61690436     -34.22765606      11.34193580
units = au
no_com
no_reorient
}

set {
  e_convergence 10
  d_convergence 10
  scf_type df
  mp2_type df
  cc_type df
  freeze_core true
}

energy('sapt0/aug-cc-pvdz')

--------------------------------------------------------------------------

  //              Dimer HF             //
    Molecular point group: c1
  Charge       = 0
  Multiplicity = 1
  Basis Set: AUG-CC-PVDZ
    Blend: AUG-CC-PVDZ
  Basis Set: (AUG-CC-PVDZ AUX)
    Blend: AUG-CC-PVDZ-JKFIT
  @DF-RHF Final Energy:  -449.52476379223526
    Total Energy =                       -449.5247637922352624
  //            Monomer A HF           //
    Molecular point group: c1
  Multiplicity = 1
  Basis Set: AUG-CC-PVDZ
    Blend: AUG-CC-PVDZ
  Basis Set: (AUG-CC-PVDZ AUX)
    Blend: AUG-CC-PVDZ-JKFIT
  @DF-RHF Final Energy:  -224.76233952246483
    Total Energy =                       -224.7623395224648277
  //            Monomer B HF           //
    Molecular point group: c1

    Geometry (in Bohr), charge = 0, multiplicity = 1:

       Center              X                  Y                   Z               Mass
    ------------   -----------------  -----------------  -----------------  -----------------
      Gh(N)           6.279812100000    -4.253033720000     0.193138650000    14.003074004430
      Gh(N)           6.068707770000    -2.281256970000     1.805443170000    14.003074004430
      Gh(H)           3.668711560000    -5.646289410000    -1.966840010000     1.007825032230
      Gh(H)           0.690345210000    -2.375456940000    -0.428642360000     1.007825032230
      Gh(H)           3.359174420000     0.176506010000     3.092650170000     1.007825032230
      Gh(H)           7.352667820000    -1.994613110000     2.906807020000     1.007825032230
      Gh(C)           3.779525860000    -1.215084530000     1.768581720000    12.000000000000
      Gh(C)           2.382429980000    -2.555055380000     0.046076810000    12.000000000000
      Gh(C)           4.017714680000    -4.384104900000    -0.887618630000    12.000000000000
         N           -4.940290130000   -33.280898730000    11.257333650000    14.003074004430
         N           -4.821427870000   -31.242991700000    12.794507370000    14.003074004430
         H           -2.267127390000   -35.681808700000    10.539303290000     1.007825032230
         H            0.627509170000   -33.239269960000    13.294440800000     1.007825032230
         H           -2.308914910000   -29.526220940000    15.199077110000     1.007825032230
         H           -6.283836080000   -30.433014640000    13.180272690000     1.007825032230
         C           -2.538591460000   -30.912816030000    13.823556220000    12.000000000000
         C           -1.055599030000   -32.842488240000    12.933633750000    12.000000000000
         C           -2.616904360000   -34.227656060000    11.341935800000    12.000000000000

  Charge       = 0
  Multiplicity = 1
  Basis Set: AUG-CC-PVDZ
    Blend: AUG-CC-PVDZ
  Basis Set: (AUG-CC-PVDZ AUX)
    Blend: AUG-CC-PVDZ-JKFIT

    Orbital Energies [Eh]
    ---------------------

    Doubly Occupied:

       1A    -15.636233     2A    -15.592291     3A    -11.279903
       4A    -11.237759     5A    -11.209884     6A     -1.387001
       7A     -1.121894     8A     -1.066928     9A     -0.872759
      10A     -0.837039    11A     -0.757272    12A     -0.645745
      13A     -0.620828    14A     -0.609177    15A     -0.583905
      16A     -0.461413    17A     -0.370715    18A     -0.346055

  @DF-RHF Final Energy:  -224.76243506523610

   => Energetics <=

    Nuclear Repulsion Energy =            166.6286027318926415
    One-Electron Energy =                -633.5084732625089146
    Two-Electron Energy =                 242.1174354653801402
    Total Energy =                       -224.7624350652361045

  Dipole Moment: [D]
     X:     0.7394      Y:     1.4336      Z:     1.7871     Total:     2.4074

    SAPT Results
  --------------------------------------------------------------------------------------------------------
    Electrostatics                  0.01075549 [mEh]       0.00674917 [kcal/mol]       0.02823855 [kJ/mol]
      Elst10,r                      0.01075549 [mEh]       0.00674917 [kcal/mol]       0.02823855 [kJ/mol]

    Exchange                        0.00000000 [mEh]       0.00000000 [kcal/mol]       0.00000000 [kJ/mol]
      Exch10                        0.00000000 [mEh]       0.00000000 [kcal/mol]       0.00000000 [kJ/mol]
      Exch10(S^2)                   0.00000000 [mEh]       0.00000000 [kcal/mol]       0.00000000 [kJ/mol]

    Induction                       0.00003997 [mEh]       0.00002508 [kcal/mol]       0.00010495 [kJ/mol]
      Ind20,r                      -0.00003844 [mEh]      -0.00002412 [kcal/mol]      -0.00010093 [kJ/mol]
      Exch-Ind20,r                  0.00000000 [mEh]       0.00000000 [kcal/mol]       0.00000000 [kJ/mol]
      delta HF,r (2)                0.00007841 [mEh]       0.00004920 [kcal/mol]       0.00020587 [kJ/mol]

    Dispersion                     -0.00081170 [mEh]      -0.00050935 [kcal/mol]      -0.00213112 [kJ/mol]
      Disp20                       -0.00081170 [mEh]      -0.00050935 [kcal/mol]      -0.00213112 [kJ/mol]
      Exch-Disp20                   0.00000000 [mEh]       0.00000000 [kcal/mol]       0.00000000 [kJ/mol]
      Disp20 (SS)                  -0.00040585 [mEh]      -0.00025468 [kcal/mol]      -0.00106556 [kJ/mol]
      Disp20 (OS)                  -0.00040585 [mEh]      -0.00025468 [kcal/mol]      -0.00106556 [kJ/mol]
      Exch-Disp20 (SS)              0.00000000 [mEh]       0.00000000 [kcal/mol]       0.00000000 [kJ/mol]
      Exch-Disp20 (OS)              0.00000000 [mEh]       0.00000000 [kcal/mol]       0.00000000 [kJ/mol]

  Total HF                          0.01079547 [mEh]       0.00677426 [kcal/mol]       0.02834349 [kJ/mol]
  Total SAPT0                       0.00998376 [mEh]       0.00626491 [kcal/mol]       0.02621237 [kJ/mol]

  Special recipe for scaled SAPT0 (see Manual):
    Electrostatics sSAPT0           0.01075549 [mEh]       0.00674917 [kcal/mol]       0.02823855 [kJ/mol]
    Exchange sSAPT0                 0.00000000 [mEh]       0.00000000 [kcal/mol]       0.00000000 [kJ/mol]
    Induction sSAPT0                0.00003997 [mEh]       0.00002508 [kcal/mol]       0.00010495 [kJ/mol]
    Dispersion sSAPT0              -0.00081170 [mEh]      -0.00050935 [kcal/mol]      -0.00213112 [kJ/mol]
  Total sSAPT0                      0.00998376 [mEh]       0.00626491 [kcal/mol]       0.02621237 [kJ/mol]
  --------------------------------------------------------------------------------------------------------

*** Psi4 exiting successfully. Buy a developer a beer!
