                               Psi4 1.4rc3

  ==> Input File <==

--------------------------------------------------------------------------
# PSI4 file produced by CrystaLattE

# Generated from:               pyrazole.xyz
# Psithon input for N-mer:      2mer-0+240
# Number of atoms per monomer:  [9, 9]
# Number of replicas:           2
# COM priority:                 3.314140653730e-05
# Minimum COM separations:      16.474
# Separation priority:          3.986860805410e-05
# Minimum monomer separations:  15.490
# Cutoff priority:              1.361992651368e-06
# Nuclear repulsion energy:     374.67986372924014

memory 7 GB

molecule Dimer_0_240 {
  N            6.27981210      -4.25303372       0.19313865
  N            6.06870777      -2.28125697       1.80544317
  H            3.66871156      -5.64628941      -1.96684001
  H            0.69034521      -2.37545694      -0.42864236
  H            3.35917442       0.17650601       3.09265017
  H            7.35266782      -1.99461311       2.90680702
  C            3.77952586      -1.21508453       1.76858172
  C            2.38242998      -2.55505538       0.04607681
  C            4.01771468      -4.38410490      -0.88761863
--
  N           21.75666907      19.53483875     -12.60597640
  N           21.54556474      21.50661550     -10.99367188
  H           19.14556853      18.14158306     -14.76595506
  H           16.16720217      21.41241552     -13.22775741
  H           18.83603139      23.96437848      -9.70646488
  H           22.82952479      21.79325936      -9.89230803
  C           19.25638282      22.57278794     -11.03053333
  C           17.85928694      21.23281709     -12.75303823
  C           19.49457165      19.40376757     -13.68673368
units = au
no_com
no_reorient
}

set {
  e_convergence 10
  d_convergence 10
  scf_type df
  mp2_type df
  cc_type df
  freeze_core true
}

energy('sapt0/aug-cc-pvdz')

--------------------------------------------------------------------------

  //              Dimer HF             //
    Molecular point group: c1
  Charge       = 0
  Multiplicity = 1
  Basis Set: AUG-CC-PVDZ
    Blend: AUG-CC-PVDZ
  Basis Set: (AUG-CC-PVDZ AUX)
    Blend: AUG-CC-PVDZ-JKFIT
  @DF-RHF Final Energy:  -449.52465123777438
    Total Energy =                       -449.5246512377743784
  //            Monomer A HF           //
    Molecular point group: c1
  Multiplicity = 1
  Basis Set: AUG-CC-PVDZ
    Blend: AUG-CC-PVDZ
  Basis Set: (AUG-CC-PVDZ AUX)
    Blend: AUG-CC-PVDZ-JKFIT
  @DF-RHF Final Energy:  -224.76233952407307
    Total Energy =                       -224.7623395240730702
  //            Monomer B HF           //
    Molecular point group: c1

    Geometry (in Bohr), charge = 0, multiplicity = 1:

       Center              X                  Y                   Z               Mass
    ------------   -----------------  -----------------  -----------------  -----------------
      Gh(N)           6.279812100000    -4.253033720000     0.193138650000    14.003074004430
      Gh(N)           6.068707770000    -2.281256970000     1.805443170000    14.003074004430
      Gh(H)           3.668711560000    -5.646289410000    -1.966840010000     1.007825032230
      Gh(H)           0.690345210000    -2.375456940000    -0.428642360000     1.007825032230
      Gh(H)           3.359174420000     0.176506010000     3.092650170000     1.007825032230
      Gh(H)           7.352667820000    -1.994613110000     2.906807020000     1.007825032230
      Gh(C)           3.779525860000    -1.215084530000     1.768581720000    12.000000000000
      Gh(C)           2.382429980000    -2.555055380000     0.046076810000    12.000000000000
      Gh(C)           4.017714680000    -4.384104900000    -0.887618630000    12.000000000000
         N           21.756669070000    19.534838750000   -12.605976400000    14.003074004430
         N           21.545564740000    21.506615500000   -10.993671880000    14.003074004430
         H           19.145568530000    18.141583060000   -14.765955060000     1.007825032230
         H           16.167202170000    21.412415520000   -13.227757410000     1.007825032230
         H           18.836031390000    23.964378480000    -9.706464880000     1.007825032230
         H           22.829524790000    21.793259360000    -9.892308030000     1.007825032230
         C           19.256382820000    22.572787940000   -11.030533330000    12.000000000000
         C           17.859286940000    21.232817090000   -12.753038230000    12.000000000000
         C           19.494571650000    19.403767570000   -13.686733680000    12.000000000000

  Charge       = 0
  Multiplicity = 1
  Basis Set: AUG-CC-PVDZ
    Blend: AUG-CC-PVDZ
  Basis Set: (AUG-CC-PVDZ AUX)
    Blend: AUG-CC-PVDZ-JKFIT

    Orbital Energies [Eh]
    ---------------------

    Doubly Occupied:

       1A    -15.636223     2A    -15.592313     3A    -11.279894
       4A    -11.237784     5A    -11.209891     6A     -1.386922
       7A     -1.121901     8A     -1.066898     9A     -0.872768
      10A     -0.837061    11A     -0.757292    12A     -0.645746
      13A     -0.620834    14A     -0.609140    15A     -0.583920
      16A     -0.461404    17A     -0.370721    18A     -0.346048

  @DF-RHF Final Energy:  -224.76233952243956

   => Energetics <=

    Nuclear Repulsion Energy =            166.6240563157553254
    One-Electron Energy =                -633.4992731236263808
    Two-Electron Energy =                 242.1128772854315230
    Total Energy =                       -224.7623395224395608

  Dipole Moment: [D]
     X:    -1.0235      Y:     1.6055      Z:     1.4733     Total:     2.4075

    SAPT Results
  --------------------------------------------------------------------------------------------------------
    Electrostatics                  0.02777201 [mEh]       0.01742720 [kcal/mol]       0.07291540 [kJ/mol]
      Elst10,r                      0.02777201 [mEh]       0.01742720 [kcal/mol]       0.07291540 [kJ/mol]

    Exchange                        0.00000000 [mEh]       0.00000000 [kcal/mol]       0.00000000 [kJ/mol]
      Exch10                        0.00000000 [mEh]       0.00000000 [kcal/mol]       0.00000000 [kJ/mol]
      Exch10(S^2)                   0.00000000 [mEh]       0.00000000 [kcal/mol]       0.00000000 [kJ/mol]

    Induction                       0.00003673 [mEh]       0.00002305 [kcal/mol]       0.00009644 [kJ/mol]
      Ind20,r                      -0.00005191 [mEh]      -0.00003257 [kcal/mol]      -0.00013628 [kJ/mol]
      Exch-Ind20,r                  0.00000000 [mEh]       0.00000000 [kcal/mol]       0.00000000 [kJ/mol]
      delta HF,r (2)                0.00008864 [mEh]       0.00005562 [kcal/mol]       0.00023272 [kJ/mol]

    Dispersion                     -0.00107297 [mEh]      -0.00067330 [kcal/mol]      -0.00281708 [kJ/mol]
      Disp20                       -0.00107297 [mEh]      -0.00067330 [kcal/mol]      -0.00281708 [kJ/mol]
      Exch-Disp20                   0.00000000 [mEh]       0.00000000 [kcal/mol]       0.00000000 [kJ/mol]
      Disp20 (SS)                  -0.00053648 [mEh]      -0.00033665 [kcal/mol]      -0.00140854 [kJ/mol]
      Disp20 (OS)                  -0.00053648 [mEh]      -0.00033665 [kcal/mol]      -0.00140854 [kJ/mol]
      Exch-Disp20 (SS)              0.00000000 [mEh]       0.00000000 [kcal/mol]       0.00000000 [kJ/mol]
      Exch-Disp20 (OS)              0.00000000 [mEh]       0.00000000 [kcal/mol]       0.00000000 [kJ/mol]

  Total HF                          0.02780874 [mEh]       0.01745025 [kcal/mol]       0.07301183 [kJ/mol]
  Total SAPT0                       0.02673577 [mEh]       0.01677695 [kcal/mol]       0.07019476 [kJ/mol]

  Special recipe for scaled SAPT0 (see Manual):
    Electrostatics sSAPT0           0.02777201 [mEh]       0.01742720 [kcal/mol]       0.07291540 [kJ/mol]
    Exchange sSAPT0                 0.00000000 [mEh]       0.00000000 [kcal/mol]       0.00000000 [kJ/mol]
    Induction sSAPT0                0.00003673 [mEh]       0.00002305 [kcal/mol]       0.00009644 [kJ/mol]
    Dispersion sSAPT0              -0.00107297 [mEh]      -0.00067330 [kcal/mol]      -0.00281708 [kJ/mol]
  Total sSAPT0                      0.02673577 [mEh]       0.01677695 [kcal/mol]       0.07019476 [kJ/mol]
  --------------------------------------------------------------------------------------------------------

*** Psi4 exiting successfully. Buy a developer a beer!
