                               Psi4 1.4rc3

  ==> Input File <==

--------------------------------------------------------------------------
# PSI4 file produced by CrystaLattE

# Generated from:               pyrazole.xyz
# Psithon input for N-mer:      2mer-0+322
# Number of atoms per monomer:  [9, 9]
# Number of replicas:           1
# COM priority:                 2.495813505955e-05
# Minimum COM separations:      18.108
# Separation priority:          3.809893073190e-05
# Minimum monomer separations:  15.726
# Cutoff priority:              1.281987280220e-06
# Nuclear repulsion energy:     371.076691053174

memory 7 GB

molecule Dimer_0_322 {
  N            6.27981210      -4.25303372       0.19313865
  N            6.06870777      -2.28125697       1.80544317
  H            3.66871156      -5.64628941      -1.96684001
  H            0.69034521      -2.37545694      -0.42864236
  H            3.35917442       0.17650601       3.09265017
  H            7.35266782      -1.99461311       2.90680702
  C            3.77952586      -1.21508453       1.76858172
  C            2.38242998      -2.55505538       0.04607681
  C            4.01771468      -4.38410490      -0.88761863
--
  N           18.27499532      26.18878244       7.98741574
  N           18.39385758      28.22668947       6.45024202
  H           20.94815806      23.78787247       8.70544609
  H           23.84279462      26.23041121       5.95030859
  H           20.90637054      29.94346023       4.04567228
  H           16.93144937      29.03666653       6.06447669
  C           20.67669399      28.55686514       5.42119317
  C           22.15968642      26.62719292       6.31111564
  C           20.59838109      25.24202511       7.90281359
units = au
no_com
no_reorient
}

set {
  e_convergence 10
  d_convergence 10
  scf_type df
  mp2_type df
  cc_type df
  freeze_core true
}

energy('sapt0/aug-cc-pvdz')

--------------------------------------------------------------------------

  //              Dimer HF             //
    Molecular point group: c1
  Charge       = 0
  Multiplicity = 1
  Basis Set: AUG-CC-PVDZ
    Blend: AUG-CC-PVDZ
  Basis Set: (AUG-CC-PVDZ AUX)
    Blend: AUG-CC-PVDZ-JKFIT
  @DF-RHF Final Energy:  -449.52480864149391
    Total Energy =                       -449.5248086414939053
  //            Monomer A HF           //
    Molecular point group: c1
  Multiplicity = 1
  Basis Set: AUG-CC-PVDZ
    Blend: AUG-CC-PVDZ
  Basis Set: (AUG-CC-PVDZ AUX)
    Blend: AUG-CC-PVDZ-JKFIT
  @DF-RHF Final Energy:  -224.76233952247171
    Total Energy =                       -224.7623395224717058
  //            Monomer B HF           //
    Molecular point group: c1

    Geometry (in Bohr), charge = 0, multiplicity = 1:

       Center              X                  Y                   Z               Mass
    ------------   -----------------  -----------------  -----------------  -----------------
      Gh(N)           6.279812100000    -4.253033720000     0.193138650000    14.003074004430
      Gh(N)           6.068707770000    -2.281256970000     1.805443170000    14.003074004430
      Gh(H)           3.668711560000    -5.646289410000    -1.966840010000     1.007825032230
      Gh(H)           0.690345210000    -2.375456940000    -0.428642360000     1.007825032230
      Gh(H)           3.359174420000     0.176506010000     3.092650170000     1.007825032230
      Gh(H)           7.352667820000    -1.994613110000     2.906807020000     1.007825032230
      Gh(C)           3.779525860000    -1.215084530000     1.768581720000    12.000000000000
      Gh(C)           2.382429980000    -2.555055380000     0.046076810000    12.000000000000
      Gh(C)           4.017714680000    -4.384104900000    -0.887618630000    12.000000000000
         N           18.274995320000    26.188782440000     7.987415740000    14.003074004430
         N           18.393857580000    28.226689470000     6.450242020000    14.003074004430
         H           20.948158060000    23.787872470000     8.705446090000     1.007825032230
         H           23.842794620000    26.230411210000     5.950308590000     1.007825032230
         H           20.906370540000    29.943460230000     4.045672280000     1.007825032230
         H           16.931449370000    29.036666530000     6.064476690000     1.007825032230
         C           20.676693990000    28.556865140000     5.421193170000    12.000000000000
         C           22.159686420000    26.627192920000     6.311115640000    12.000000000000
         C           20.598381090000    25.242025110000     7.902813590000    12.000000000000

  Charge       = 0
  Multiplicity = 1
  Basis Set: AUG-CC-PVDZ
    Blend: AUG-CC-PVDZ
  Basis Set: (AUG-CC-PVDZ AUX)
    Blend: AUG-CC-PVDZ-JKFIT

    Orbital Energies [Eh]
    ---------------------

    Doubly Occupied:

       1A    -15.636233     2A    -15.592291     3A    -11.279903
       4A    -11.237759     5A    -11.209884     6A     -1.387001
       7A     -1.121894     8A     -1.066928     9A     -0.872759
      10A     -0.837039    11A     -0.757272    12A     -0.645745
      13A     -0.620828    14A     -0.609177    15A     -0.583905
      16A     -0.461413    17A     -0.370715    18A     -0.346055

  @DF-RHF Final Energy:  -224.76243506290984

   => Energetics <=

    Nuclear Repulsion Energy =            166.6286027236197356
    One-Electron Energy =                -633.5084732313939639
    Two-Electron Energy =                 242.1174354448643840
    Total Energy =                       -224.7624350629098444

  Dipole Moment: [D]
     X:     0.7394      Y:     1.4336      Z:    -1.7871     Total:     2.4074

    SAPT Results
  --------------------------------------------------------------------------------------------------------
    Electrostatics                 -0.03404782 [mEh]      -0.02136533 [kcal/mol]      -0.08939255 [kJ/mol]
      Elst10,r                     -0.03404782 [mEh]      -0.02136533 [kcal/mol]      -0.08939255 [kJ/mol]

    Exchange                        0.00000000 [mEh]       0.00000000 [kcal/mol]       0.00000000 [kJ/mol]
      Exch10                        0.00000000 [mEh]       0.00000000 [kcal/mol]       0.00000000 [kJ/mol]
      Exch10(S^2)                   0.00000000 [mEh]       0.00000000 [kcal/mol]       0.00000000 [kJ/mol]

    Induction                      -0.00000829 [mEh]      -0.00000520 [kcal/mol]      -0.00002176 [kJ/mol]
      Ind20,r                      -0.00006794 [mEh]      -0.00004263 [kcal/mol]      -0.00017838 [kJ/mol]
      Exch-Ind20,r                  0.00000000 [mEh]       0.00000000 [kcal/mol]       0.00000000 [kJ/mol]
      delta HF,r (2)                0.00005965 [mEh]       0.00003743 [kcal/mol]       0.00015662 [kJ/mol]

    Dispersion                     -0.00071059 [mEh]      -0.00044590 [kcal/mol]      -0.00186566 [kJ/mol]
      Disp20                       -0.00071059 [mEh]      -0.00044590 [kcal/mol]      -0.00186566 [kJ/mol]
      Exch-Disp20                   0.00000000 [mEh]       0.00000000 [kcal/mol]       0.00000000 [kJ/mol]
      Disp20 (SS)                  -0.00035530 [mEh]      -0.00022295 [kcal/mol]      -0.00093283 [kJ/mol]
      Disp20 (OS)                  -0.00035530 [mEh]      -0.00022295 [kcal/mol]      -0.00093283 [kJ/mol]
      Exch-Disp20 (SS)              0.00000000 [mEh]       0.00000000 [kcal/mol]       0.00000000 [kJ/mol]
      Exch-Disp20 (OS)              0.00000000 [mEh]       0.00000000 [kcal/mol]       0.00000000 [kJ/mol]

  Total HF                         -0.03405611 [mEh]      -0.02137053 [kcal/mol]      -0.08941431 [kJ/mol]
  Total SAPT0                      -0.03476670 [mEh]      -0.02181644 [kcal/mol]      -0.09127997 [kJ/mol]

  Special recipe for scaled SAPT0 (see Manual):
    Electrostatics sSAPT0          -0.03404782 [mEh]      -0.02136533 [kcal/mol]      -0.08939255 [kJ/mol]
    Exchange sSAPT0                 0.00000000 [mEh]       0.00000000 [kcal/mol]       0.00000000 [kJ/mol]
    Induction sSAPT0               -0.00000829 [mEh]      -0.00000520 [kcal/mol]      -0.00002176 [kJ/mol]
    Dispersion sSAPT0              -0.00071059 [mEh]      -0.00044590 [kcal/mol]      -0.00186566 [kJ/mol]
  Total sSAPT0                     -0.03476670 [mEh]      -0.02181644 [kcal/mol]      -0.09127997 [kJ/mol]
  --------------------------------------------------------------------------------------------------------

*** Psi4 exiting successfully. Buy a developer a beer!
