                               Psi4 1.4rc3

  ==> Input File <==

--------------------------------------------------------------------------
# PSI4 file produced by CrystaLattE

# Generated from:               pyrazole.xyz
# Psithon input for N-mer:      2mer-0+47
# Number of atoms per monomer:  [9, 9]
# Number of replicas:           2
# COM priority:                 1.234457621021e-04
# Minimum COM separations:      10.628
# Separation priority:          2.189445749776e-04
# Minimum monomer separations:  8.780
# Cutoff priority:              1.319609960336e-05
# Nuclear repulsion energy:     397.5445457541799

memory 7 GB

molecule Dimer_0_47 {
  N            6.27981210      -4.25303372       0.19313865
  N            6.06870777      -2.28125697       1.80544317
  H            3.66871156      -5.64628941      -1.96684001
  H            0.69034521      -2.37545694      -0.42864236
  H            3.35917442       0.17650601       3.09265017
  H            7.35266782      -1.99461311       2.90680702
  C            3.77952586      -1.21508453       1.76858172
  C            2.38242998      -2.55505538       0.04607681
  C            4.01771468      -4.38410490      -0.88761863
--
  N           -9.19704487      -4.25303372      12.99225369
  N           -9.40814920      -2.28125697      14.60455822
  H          -11.80814541      -5.64628941      10.83227504
  H          -14.78651176      -2.37545694      12.37047268
  H          -12.11768255       0.17650601      15.89176522
  H           -8.12418914      -1.99461311      15.70592207
  C          -11.69733111      -1.21508453      14.56769677
  C          -13.09442699      -2.55505538      12.84519186
  C          -11.45914228      -4.38410490      11.91149642
units = au
no_com
no_reorient
}

set {
  e_convergence 10
  d_convergence 10
  scf_type df
  mp2_type df
  cc_type df
  freeze_core true
}

energy('sapt0/aug-cc-pvdz')

--------------------------------------------------------------------------

  //              Dimer HF             //
    Molecular point group: c1
  Charge       = 0
  Multiplicity = 1
  Basis Set: AUG-CC-PVDZ
    Blend: AUG-CC-PVDZ
  Basis Set: (AUG-CC-PVDZ AUX)
    Blend: AUG-CC-PVDZ-JKFIT
  @DF-RHF Final Energy:  -449.52469398617984
    Total Energy =                       -449.5246939861798410
  //            Monomer A HF           //
    Molecular point group: c1
  Multiplicity = 1
  Basis Set: AUG-CC-PVDZ
    Blend: AUG-CC-PVDZ
  Basis Set: (AUG-CC-PVDZ AUX)
    Blend: AUG-CC-PVDZ-JKFIT
  @DF-RHF Final Energy:  -224.76234224692828
    Total Energy =                       -224.7623422469282843
  //            Monomer B HF           //
    Molecular point group: c1

    Geometry (in Bohr), charge = 0, multiplicity = 1:

       Center              X                  Y                   Z               Mass
    ------------   -----------------  -----------------  -----------------  -----------------
      Gh(N)           6.279812100000    -4.253033720000     0.193138650000    14.003074004430
      Gh(N)           6.068707770000    -2.281256970000     1.805443170000    14.003074004430
      Gh(H)           3.668711560000    -5.646289410000    -1.966840010000     1.007825032230
      Gh(H)           0.690345210000    -2.375456940000    -0.428642360000     1.007825032230
      Gh(H)           3.359174420000     0.176506010000     3.092650170000     1.007825032230
      Gh(H)           7.352667820000    -1.994613110000     2.906807020000     1.007825032230
      Gh(C)           3.779525860000    -1.215084530000     1.768581720000    12.000000000000
      Gh(C)           2.382429980000    -2.555055380000     0.046076810000    12.000000000000
      Gh(C)           4.017714680000    -4.384104900000    -0.887618630000    12.000000000000
         N           -9.197044870000    -4.253033720000    12.992253690000    14.003074004430
         N           -9.408149200000    -2.281256970000    14.604558220000    14.003074004430
         H          -11.808145410000    -5.646289410000    10.832275040000     1.007825032230
         H          -14.786511760000    -2.375456940000    12.370472680000     1.007825032230
         H          -12.117682550000     0.176506010000    15.891765220000     1.007825032230
         H           -8.124189140000    -1.994613110000    15.705922070000     1.007825032230
         C          -11.697331110000    -1.215084530000    14.567696770000    12.000000000000
         C          -13.094426990000    -2.555055380000    12.845191860000    12.000000000000
         C          -11.459142280000    -4.384104900000    11.911496420000    12.000000000000

  Charge       = 0
  Multiplicity = 1
  Basis Set: AUG-CC-PVDZ
    Blend: AUG-CC-PVDZ
  Basis Set: (AUG-CC-PVDZ AUX)
    Blend: AUG-CC-PVDZ-JKFIT

    Orbital Energies [Eh]
    ---------------------

    Doubly Occupied:

       1A    -15.636223     2A    -15.592314     3A    -11.279893
       4A    -11.237780     5A    -11.209891     6A     -1.386921
       7A     -1.121901     8A     -1.066898     9A     -0.872768
      10A     -0.837061    11A     -0.757292    12A     -0.645746
      13A     -0.620833    14A     -0.609140    15A     -0.583920
      16A     -0.461404    17A     -0.370721    18A     -0.346047

  @DF-RHF Final Energy:  -224.76234369187304

   => Energetics <=

    Nuclear Repulsion Energy =            166.6240564211403523
    One-Electron Energy =                -633.4992913966925698
    Two-Electron Energy =                 242.1128912836791471
    Total Energy =                       -224.7623436918730420

  Dipole Moment: [D]
     X:    -1.0235      Y:     1.6056      Z:     1.4733     Total:     2.4075

    SAPT Results
  --------------------------------------------------------------------------------------------------------
    Electrostatics                 -0.00666991 [mEh]      -0.00418543 [kcal/mol]      -0.01751185 [kJ/mol]
      Elst10,r                     -0.00666991 [mEh]      -0.00418543 [kcal/mol]      -0.01751185 [kJ/mol]

    Exchange                        0.00000287 [mEh]       0.00000180 [kcal/mol]       0.00000754 [kJ/mol]
      Exch10                        0.00000287 [mEh]       0.00000180 [kcal/mol]       0.00000754 [kJ/mol]
      Exch10(S^2)                   0.00000287 [mEh]       0.00000180 [kcal/mol]       0.00000754 [kJ/mol]

    Induction                      -0.00138034 [mEh]      -0.00086618 [kcal/mol]      -0.00362408 [kJ/mol]
      Ind20,r                      -0.00165098 [mEh]      -0.00103601 [kcal/mol]      -0.00433466 [kJ/mol]
      Exch-Ind20,r                  0.00000728 [mEh]       0.00000457 [kcal/mol]       0.00001911 [kJ/mol]
      delta HF,r (2)                0.00026337 [mEh]       0.00016527 [kcal/mol]       0.00069147 [kJ/mol]

    Dispersion                     -0.01847838 [mEh]      -0.01159536 [kcal/mol]      -0.04851499 [kJ/mol]
      Disp20                       -0.01847904 [mEh]      -0.01159578 [kcal/mol]      -0.04851672 [kJ/mol]
      Exch-Disp20                   0.00000066 [mEh]       0.00000042 [kcal/mol]       0.00000174 [kJ/mol]
      Disp20 (SS)                  -0.00923952 [mEh]      -0.00579789 [kcal/mol]      -0.02425836 [kJ/mol]
      Disp20 (OS)                  -0.00923952 [mEh]      -0.00579789 [kcal/mol]      -0.02425836 [kJ/mol]
      Exch-Disp20 (SS)              0.00000055 [mEh]       0.00000035 [kcal/mol]       0.00000145 [kJ/mol]
      Exch-Disp20 (OS)              0.00000011 [mEh]       0.00000007 [kcal/mol]       0.00000029 [kJ/mol]

  Total HF                         -0.00804738 [mEh]      -0.00504981 [kcal/mol]      -0.02112839 [kJ/mol]
  Total SAPT0                      -0.02652576 [mEh]      -0.01664517 [kcal/mol]      -0.06964338 [kJ/mol]

  Special recipe for scaled SAPT0 (see Manual):
    Electrostatics sSAPT0          -0.00666991 [mEh]      -0.00418543 [kcal/mol]      -0.01751185 [kJ/mol]
    Exchange sSAPT0                 0.00000287 [mEh]       0.00000180 [kcal/mol]       0.00000754 [kJ/mol]
    Induction sSAPT0               -0.00138034 [mEh]      -0.00086618 [kcal/mol]      -0.00362408 [kJ/mol]
    Dispersion sSAPT0              -0.01847838 [mEh]      -0.01159536 [kcal/mol]      -0.04851499 [kJ/mol]
  Total sSAPT0                     -0.02652576 [mEh]      -0.01664517 [kcal/mol]      -0.06964338 [kJ/mol]
  --------------------------------------------------------------------------------------------------------

*** Psi4 exiting successfully. Buy a developer a beer!
