                               Psi4 1.4rc3

  ==> Input File <==

--------------------------------------------------------------------------
# PSI4 file produced by CrystaLattE

# Generated from:               pyrazole.xyz
# Psithon input for N-mer:      2mer-0+595
# Number of atoms per monomer:  [9, 9]
# Number of replicas:           1
# COM priority:                 1.565385652334e-05
# Minimum COM separations:      21.154
# Separation priority:          2.515956733908e-05
# Minimum monomer separations:  18.059
# Cutoff priority:              7.372320794185e-07
# Nuclear repulsion energy:     365.69250401226384

memory 7 GB

molecule Dimer_0_595 {
  N            6.27981210      -4.25303372       0.19313865
  N            6.06870777      -2.28125697       1.80544317
  H            3.66871156      -5.64628941      -1.96684001
  H            0.69034521      -2.37545694      -0.42864236
  H            3.35917442       0.17650601       3.09265017
  H            7.35266782      -1.99461311       2.90680702
  C            3.77952586      -1.21508453       1.76858172
  C            2.38242998      -2.55505538       0.04607681
  C            4.01771468      -4.38410490      -0.88761863
--
  N           26.01342381     -33.28089873     -14.34089645
  N           26.13228607     -31.24299170     -12.80372273
  H           28.68658654     -35.68180870     -15.05892680
  H           31.58122310     -33.23926996     -12.30378930
  H           28.64479903     -29.52622094     -10.39915299
  H           24.66987785     -30.43301464     -12.41795740
  C           28.41512247     -30.91281603     -11.77467388
  C           29.89811491     -32.84248824     -12.66459635
  C           28.33680957     -34.22765606     -14.25629430
units = au
no_com
no_reorient
}

set {
  e_convergence 10
  d_convergence 10
  scf_type df
  mp2_type df
  cc_type df
  freeze_core true
}

energy('sapt0/aug-cc-pvdz')

--------------------------------------------------------------------------

  //              Dimer HF             //
    Molecular point group: c1
  Charge       = 0
  Multiplicity = 1
  Basis Set: AUG-CC-PVDZ
    Blend: AUG-CC-PVDZ
  Basis Set: (AUG-CC-PVDZ AUX)
    Blend: AUG-CC-PVDZ-JKFIT
  @DF-RHF Final Energy:  -449.52479834585790
    Total Energy =                       -449.5247983458579029
  //            Monomer A HF           //
    Molecular point group: c1
  Multiplicity = 1
  Basis Set: AUG-CC-PVDZ
    Blend: AUG-CC-PVDZ
  Basis Set: (AUG-CC-PVDZ AUX)
    Blend: AUG-CC-PVDZ-JKFIT
  @DF-RHF Final Energy:  -224.76233952068887
    Total Energy =                       -224.7623395206888688
  //            Monomer B HF           //
    Molecular point group: c1

    Geometry (in Bohr), charge = 0, multiplicity = 1:

       Center              X                  Y                   Z               Mass
    ------------   -----------------  -----------------  -----------------  -----------------
      Gh(N)           6.279812100000    -4.253033720000     0.193138650000    14.003074004430
      Gh(N)           6.068707770000    -2.281256970000     1.805443170000    14.003074004430
      Gh(H)           3.668711560000    -5.646289410000    -1.966840010000     1.007825032230
      Gh(H)           0.690345210000    -2.375456940000    -0.428642360000     1.007825032230
      Gh(H)           3.359174420000     0.176506010000     3.092650170000     1.007825032230
      Gh(H)           7.352667820000    -1.994613110000     2.906807020000     1.007825032230
      Gh(C)           3.779525860000    -1.215084530000     1.768581720000    12.000000000000
      Gh(C)           2.382429980000    -2.555055380000     0.046076810000    12.000000000000
      Gh(C)           4.017714680000    -4.384104900000    -0.887618630000    12.000000000000
         N           26.013423810000   -33.280898730000   -14.340896450000    14.003074004430
         N           26.132286070000   -31.242991700000   -12.803722730000    14.003074004430
         H           28.686586540000   -35.681808700000   -15.058926800000     1.007825032230
         H           31.581223100000   -33.239269960000   -12.303789300000     1.007825032230
         H           28.644799030000   -29.526220940000   -10.399152990000     1.007825032230
         H           24.669877850000   -30.433014640000   -12.417957400000     1.007825032230
         C           28.415122470000   -30.912816030000   -11.774673880000    12.000000000000
         C           29.898114910000   -32.842488240000   -12.664596350000    12.000000000000
         C           28.336809570000   -34.227656060000   -14.256294300000    12.000000000000

  Charge       = 0
  Multiplicity = 1
  Basis Set: AUG-CC-PVDZ
    Blend: AUG-CC-PVDZ
  Basis Set: (AUG-CC-PVDZ AUX)
    Blend: AUG-CC-PVDZ-JKFIT

    Orbital Energies [Eh]
    ---------------------

    Doubly Occupied:

       1A    -15.636233     2A    -15.592291     3A    -11.279903
       4A    -11.237759     5A    -11.209884     6A     -1.387001
       7A     -1.121894     8A     -1.066928     9A     -0.872759
      10A     -0.837039    11A     -0.757272    12A     -0.645745
      13A     -0.620828    14A     -0.609177    15A     -0.583905
      16A     -0.461413    17A     -0.370715    18A     -0.346055

  @DF-RHF Final Energy:  -224.76243506211000

   => Energetics <=

    Nuclear Repulsion Energy =            166.6286028267863912
    One-Electron Energy =                -633.5084734363834968
    Two-Electron Energy =                 242.1174355474871049
    Total Energy =                       -224.7624350621100007

  Dipole Moment: [D]
     X:     0.7394      Y:     1.4336      Z:     1.7871     Total:     2.4074

    SAPT Results
  --------------------------------------------------------------------------------------------------------
    Electrostatics                 -0.02376240 [mEh]      -0.01491113 [kcal/mol]      -0.06238817 [kJ/mol]
      Elst10,r                     -0.02376240 [mEh]      -0.01491113 [kcal/mol]      -0.06238817 [kJ/mol]

    Exchange                        0.00000000 [mEh]       0.00000000 [kcal/mol]       0.00000000 [kJ/mol]
      Exch10                        0.00000000 [mEh]       0.00000000 [kcal/mol]       0.00000000 [kJ/mol]
      Exch10(S^2)                   0.00000000 [mEh]       0.00000000 [kcal/mol]       0.00000000 [kJ/mol]

    Induction                      -0.00000066 [mEh]      -0.00000042 [kcal/mol]      -0.00000174 [kJ/mol]
      Ind20,r                      -0.00004318 [mEh]      -0.00002709 [kcal/mol]      -0.00011336 [kJ/mol]
      Exch-Ind20,r                  0.00000000 [mEh]       0.00000000 [kcal/mol]       0.00000000 [kJ/mol]
      delta HF,r (2)                0.00004251 [mEh]       0.00002668 [kcal/mol]       0.00011162 [kJ/mol]

    Dispersion                     -0.00031325 [mEh]      -0.00019657 [kcal/mol]      -0.00082243 [kJ/mol]
      Disp20                       -0.00031325 [mEh]      -0.00019657 [kcal/mol]      -0.00082243 [kJ/mol]
      Exch-Disp20                   0.00000000 [mEh]       0.00000000 [kcal/mol]       0.00000000 [kJ/mol]
      Disp20 (SS)                  -0.00015662 [mEh]      -0.00009828 [kcal/mol]      -0.00041122 [kJ/mol]
      Disp20 (OS)                  -0.00015662 [mEh]      -0.00009828 [kcal/mol]      -0.00041122 [kJ/mol]
      Exch-Disp20 (SS)              0.00000000 [mEh]       0.00000000 [kcal/mol]       0.00000000 [kJ/mol]
      Exch-Disp20 (OS)              0.00000000 [mEh]       0.00000000 [kcal/mol]       0.00000000 [kJ/mol]

  Total HF                         -0.02376306 [mEh]      -0.01491154 [kcal/mol]      -0.06238990 [kJ/mol]
  Total SAPT0                      -0.02407631 [mEh]      -0.01510811 [kcal/mol]      -0.06321234 [kJ/mol]

  Special recipe for scaled SAPT0 (see Manual):
    Electrostatics sSAPT0          -0.02376240 [mEh]      -0.01491113 [kcal/mol]      -0.06238817 [kJ/mol]
    Exchange sSAPT0                 0.00000000 [mEh]       0.00000000 [kcal/mol]       0.00000000 [kJ/mol]
    Induction sSAPT0               -0.00000066 [mEh]      -0.00000042 [kcal/mol]      -0.00000174 [kJ/mol]
    Dispersion sSAPT0              -0.00031325 [mEh]      -0.00019657 [kcal/mol]      -0.00082243 [kJ/mol]
  Total sSAPT0                     -0.02407631 [mEh]      -0.01510811 [kcal/mol]      -0.06321234 [kJ/mol]
  --------------------------------------------------------------------------------------------------------

*** Psi4 exiting successfully. Buy a developer a beer!
