                               Psi4 1.4rc3

  ==> Input File <==

--------------------------------------------------------------------------
# PSI4 file produced by CrystaLattE

# Generated from:               pyrazole.xyz
# Psithon input for N-mer:      2mer-0+159
# Number of atoms per monomer:  [9, 9]
# Number of replicas:           2
# COM priority:                 3.978502609838e-05
# Minimum COM separations:      15.501
# Separation priority:          6.778453366861e-05
# Minimum monomer separations:  12.978
# Cutoff priority:              2.763805542936e-06
# Nuclear repulsion energy:     377.50423182197494

memory 7 GB

molecule Dimer_0_159 {
  N            6.27981210      -4.25303372       0.19313865
  N            6.06870777      -2.28125697       1.80544317
  H            3.66871156      -5.64628941      -1.96684001
  H            0.69034521      -2.37545694      -0.42864236
  H            3.35917442       0.17650601       3.09265017
  H            7.35266782      -1.99461311       2.90680702
  C            3.77952586      -1.21508453       1.76858172
  C            2.38242998      -2.55505538       0.04607681
  C            4.01771468      -4.38410490      -0.88761863
--
  N          -16.93547335     -19.42731757      -0.14706183
  N          -17.14657768     -21.39909431      -1.75936635
  H          -19.54657389     -18.03406187       2.01291682
  H          -22.52494025     -21.30489434       0.47471918
  H          -19.85611103     -23.85685730      -3.04657335
  H          -15.86261763     -21.68573818      -2.86073020
  C          -19.43575960     -22.46526676      -1.72250490
  C          -20.83285547     -21.12529590       0.00000000
  C          -19.19757077     -19.29624639       0.93369544
units = au
no_com
no_reorient
}

set {
  e_convergence 10
  d_convergence 10
  scf_type df
  mp2_type df
  cc_type df
  freeze_core true
}

energy('sapt0/aug-cc-pvdz')

--------------------------------------------------------------------------

  //              Dimer HF             //
    Molecular point group: c1
  Charge       = 0
  Multiplicity = 1
  Basis Set: AUG-CC-PVDZ
    Blend: AUG-CC-PVDZ
  Basis Set: (AUG-CC-PVDZ AUX)
    Blend: AUG-CC-PVDZ-JKFIT
  @DF-RHF Final Energy:  -449.52469231675826
    Total Energy =                       -449.5246923167583191
  //            Monomer A HF           //
    Molecular point group: c1
  Multiplicity = 1
  Basis Set: AUG-CC-PVDZ
    Blend: AUG-CC-PVDZ
  Basis Set: (AUG-CC-PVDZ AUX)
    Blend: AUG-CC-PVDZ-JKFIT
  @DF-RHF Final Energy:  -224.76233952044532
    Total Energy =                       -224.7623395204453232
  //            Monomer B HF           //
    Molecular point group: c1

    Geometry (in Bohr), charge = 0, multiplicity = 1:

       Center              X                  Y                   Z               Mass
    ------------   -----------------  -----------------  -----------------  -----------------
      Gh(N)           6.279812100000    -4.253033720000     0.193138650000    14.003074004430
      Gh(N)           6.068707770000    -2.281256970000     1.805443170000    14.003074004430
      Gh(H)           3.668711560000    -5.646289410000    -1.966840010000     1.007825032230
      Gh(H)           0.690345210000    -2.375456940000    -0.428642360000     1.007825032230
      Gh(H)           3.359174420000     0.176506010000     3.092650170000     1.007825032230
      Gh(H)           7.352667820000    -1.994613110000     2.906807020000     1.007825032230
      Gh(C)           3.779525860000    -1.215084530000     1.768581720000    12.000000000000
      Gh(C)           2.382429980000    -2.555055380000     0.046076810000    12.000000000000
      Gh(C)           4.017714680000    -4.384104900000    -0.887618630000    12.000000000000
         N          -16.935473350000   -19.427317570000    -0.147061830000    14.003074004430
         N          -17.146577680000   -21.399094310000    -1.759366350000    14.003074004430
         H          -19.546573890000   -18.034061870000     2.012916820000     1.007825032230
         H          -22.524940250000   -21.304894340000     0.474719180000     1.007825032230
         H          -19.856111030000   -23.856857300000    -3.046573350000     1.007825032230
         H          -15.862617630000   -21.685738180000    -2.860730200000     1.007825032230
         C          -19.435759600000   -22.465266760000    -1.722504900000    12.000000000000
         C          -20.832855470000   -21.125295900000     0.000000000000    12.000000000000
         C          -19.197570770000   -19.296246390000     0.933695440000    12.000000000000

  Charge       = 0
  Multiplicity = 1
  Basis Set: AUG-CC-PVDZ
    Blend: AUG-CC-PVDZ
  Basis Set: (AUG-CC-PVDZ AUX)
    Blend: AUG-CC-PVDZ-JKFIT

    Orbital Energies [Eh]
    ---------------------

    Doubly Occupied:

       1A    -15.636223     2A    -15.592313     3A    -11.279894
       4A    -11.237784     5A    -11.209891     6A     -1.386922
       7A     -1.121901     8A     -1.066898     9A     -0.872768
      10A     -0.837061    11A     -0.757292    12A     -0.645746
      13A     -0.620834    14A     -0.609140    15A     -0.583920
      16A     -0.461404    17A     -0.370721    18A     -0.346048

  @DF-RHF Final Energy:  -224.76233952919313

   => Energetics <=

    Nuclear Repulsion Energy =            166.6240565271934315
    One-Electron Energy =                -633.4992735769496903
    Two-Electron Energy =                 242.1128775205631314
    Total Energy =                       -224.7623395291931274

  Dipole Moment: [D]
     X:    -1.0235      Y:    -1.6055      Z:    -1.4733     Total:     2.4075

    SAPT Results
  --------------------------------------------------------------------------------------------------------
    Electrostatics                 -0.01320542 [mEh]      -0.00828652 [kcal/mol]      -0.03467082 [kJ/mol]
      Elst10,r                     -0.01320542 [mEh]      -0.00828652 [kcal/mol]      -0.03467082 [kJ/mol]

    Exchange                        0.00000000 [mEh]       0.00000000 [kcal/mol]       0.00000001 [kJ/mol]
      Exch10                        0.00000000 [mEh]       0.00000000 [kcal/mol]       0.00000001 [kJ/mol]
      Exch10(S^2)                   0.00000000 [mEh]       0.00000000 [kcal/mol]       0.00000001 [kJ/mol]

    Induction                      -0.00006170 [mEh]      -0.00003872 [kcal/mol]      -0.00016200 [kJ/mol]
      Ind20,r                      -0.00015774 [mEh]      -0.00009898 [kcal/mol]      -0.00041414 [kJ/mol]
      Exch-Ind20,r                  0.00000000 [mEh]       0.00000000 [kcal/mol]       0.00000001 [kJ/mol]
      delta HF,r (2)                0.00009603 [mEh]       0.00006026 [kcal/mol]       0.00025213 [kJ/mol]

    Dispersion                     -0.00201435 [mEh]      -0.00126402 [kcal/mol]      -0.00528867 [kJ/mol]
      Disp20                       -0.00201435 [mEh]      -0.00126402 [kcal/mol]      -0.00528867 [kJ/mol]
      Exch-Disp20                   0.00000000 [mEh]       0.00000000 [kcal/mol]       0.00000000 [kJ/mol]
      Disp20 (SS)                  -0.00100717 [mEh]      -0.00063201 [kcal/mol]      -0.00264434 [kJ/mol]
      Disp20 (OS)                  -0.00100717 [mEh]      -0.00063201 [kcal/mol]      -0.00264434 [kJ/mol]
      Exch-Disp20 (SS)              0.00000000 [mEh]       0.00000000 [kcal/mol]       0.00000000 [kJ/mol]
      Exch-Disp20 (OS)              0.00000000 [mEh]       0.00000000 [kcal/mol]       0.00000000 [kJ/mol]

  Total HF                         -0.01326712 [mEh]      -0.00832524 [kcal/mol]      -0.03483282 [kJ/mol]
  Total SAPT0                      -0.01528147 [mEh]      -0.00958927 [kcal/mol]      -0.04012149 [kJ/mol]

  Special recipe for scaled SAPT0 (see Manual):
    Electrostatics sSAPT0          -0.01320542 [mEh]      -0.00828652 [kcal/mol]      -0.03467082 [kJ/mol]
    Exchange sSAPT0                 0.00000000 [mEh]       0.00000000 [kcal/mol]       0.00000001 [kJ/mol]
    Induction sSAPT0               -0.00006170 [mEh]      -0.00003872 [kcal/mol]      -0.00016200 [kJ/mol]
    Dispersion sSAPT0              -0.00201435 [mEh]      -0.00126402 [kcal/mol]      -0.00528867 [kJ/mol]
  Total sSAPT0                     -0.01528147 [mEh]      -0.00958927 [kcal/mol]      -0.04012149 [kJ/mol]
  --------------------------------------------------------------------------------------------------------

*** Psi4 exiting successfully. Buy a developer a beer!
