                               Psi4 1.4rc3

  ==> Input File <==

--------------------------------------------------------------------------
# PSI4 file produced by CrystaLattE

# Generated from:               pyrazole.xyz
# Psithon input for N-mer:      2mer-0+301
# Number of atoms per monomer:  [9, 9]
# Number of replicas:           2
# COM priority:                 1.625341032689e-05
# Minimum COM separations:      20.891
# Separation priority:          2.827213910973e-05
# Minimum monomer separations:  17.371
# Cutoff priority:              8.612810503118e-07
# Nuclear repulsion energy:     366.16051054057823

memory 7 GB

molecule Dimer_0_301 {
  N            6.27981210      -4.25303372       0.19313865
  N            6.06870777      -2.28125697       1.80544317
  H            3.66871156      -5.64628941      -1.96684001
  H            0.69034521      -2.37545694      -0.42864236
  H            3.35917442       0.17650601       3.09265017
  H            7.35266782      -1.99461311       2.90680702
  C            3.77952586      -1.21508453       1.76858172
  C            2.38242998      -2.55505538       0.04607681
  C            4.01771468      -4.38410490      -0.88761863
--
  N          -16.93547335      28.14842737      12.65205322
  N          -17.14657768      26.17665062      11.03974869
  H          -19.54657389      29.54168306      14.81203187
  H          -22.52494025      26.27085060      13.27383422
  H          -19.85611103      23.71888764       9.75254169
  H          -15.86261763      25.89000676       9.93838484
  C          -19.43575960      25.11047818      11.07661014
  C          -20.83285547      26.45044903      12.79911505
  C          -19.19757077      28.27949855      13.73281049
units = au
no_com
no_reorient
}

set {
  e_convergence 10
  d_convergence 10
  scf_type df
  mp2_type df
  cc_type df
  freeze_core true
}

energy('sapt0/aug-cc-pvdz')

--------------------------------------------------------------------------

  //              Dimer HF             //
    Molecular point group: c1
  Charge       = 0
  Multiplicity = 1
  Basis Set: AUG-CC-PVDZ
    Blend: AUG-CC-PVDZ
  Basis Set: (AUG-CC-PVDZ AUX)
    Blend: AUG-CC-PVDZ-JKFIT
  @DF-RHF Final Energy:  -449.52467055668649
    Total Energy =                       -449.5246705566864875
  //            Monomer A HF           //
    Molecular point group: c1
  Multiplicity = 1
  Basis Set: AUG-CC-PVDZ
    Blend: AUG-CC-PVDZ
  Basis Set: (AUG-CC-PVDZ AUX)
    Blend: AUG-CC-PVDZ-JKFIT
  @DF-RHF Final Energy:  -224.76233952161741
    Total Energy =                       -224.7623395216174060
  //            Monomer B HF           //
    Molecular point group: c1

    Geometry (in Bohr), charge = 0, multiplicity = 1:

       Center              X                  Y                   Z               Mass
    ------------   -----------------  -----------------  -----------------  -----------------
      Gh(N)           6.279812100000    -4.253033720000     0.193138650000    14.003074004430
      Gh(N)           6.068707770000    -2.281256970000     1.805443170000    14.003074004430
      Gh(H)           3.668711560000    -5.646289410000    -1.966840010000     1.007825032230
      Gh(H)           0.690345210000    -2.375456940000    -0.428642360000     1.007825032230
      Gh(H)           3.359174420000     0.176506010000     3.092650170000     1.007825032230
      Gh(H)           7.352667820000    -1.994613110000     2.906807020000     1.007825032230
      Gh(C)           3.779525860000    -1.215084530000     1.768581720000    12.000000000000
      Gh(C)           2.382429980000    -2.555055380000     0.046076810000    12.000000000000
      Gh(C)           4.017714680000    -4.384104900000    -0.887618630000    12.000000000000
         N          -16.935473350000    28.148427370000    12.652053220000    14.003074004430
         N          -17.146577680000    26.176650620000    11.039748690000    14.003074004430
         H          -19.546573890000    29.541683060000    14.812031870000     1.007825032230
         H          -22.524940250000    26.270850600000    13.273834220000     1.007825032230
         H          -19.856111030000    23.718887640000     9.752541690000     1.007825032230
         H          -15.862617630000    25.890006760000     9.938384840000     1.007825032230
         C          -19.435759600000    25.110478180000    11.076610140000    12.000000000000
         C          -20.832855470000    26.450449030000    12.799115050000    12.000000000000
         C          -19.197570770000    28.279498550000    13.732810490000    12.000000000000

  Charge       = 0
  Multiplicity = 1
  Basis Set: AUG-CC-PVDZ
    Blend: AUG-CC-PVDZ
  Basis Set: (AUG-CC-PVDZ AUX)
    Blend: AUG-CC-PVDZ-JKFIT

    Orbital Energies [Eh]
    ---------------------

    Doubly Occupied:

       1A    -15.636223     2A    -15.592313     3A    -11.279894
       4A    -11.237784     5A    -11.209891     6A     -1.386922
       7A     -1.121901     8A     -1.066898     9A     -0.872768
      10A     -0.837061    11A     -0.757292    12A     -0.645746
      13A     -0.620834    14A     -0.609140    15A     -0.583920
      16A     -0.461404    17A     -0.370721    18A     -0.346048

  @DF-RHF Final Energy:  -224.76233952179041

   => Energetics <=

    Nuclear Repulsion Energy =            166.6240563535302783
    One-Electron Energy =                -633.4992732060243270
    Two-Electron Energy =                 242.1128773307036681
    Total Energy =                       -224.7623395217904090

  Dipole Moment: [D]
     X:    -1.0235      Y:    -1.6055      Z:    -1.4733     Total:     2.4075

    SAPT Results
  --------------------------------------------------------------------------------------------------------
    Electrostatics                  0.00846353 [mEh]       0.00531094 [kcal/mol]       0.02222099 [kJ/mol]
      Elst10,r                      0.00846353 [mEh]       0.00531094 [kcal/mol]       0.02222099 [kJ/mol]

    Exchange                        0.00000000 [mEh]       0.00000000 [kcal/mol]       0.00000000 [kJ/mol]
      Exch10                        0.00000000 [mEh]       0.00000000 [kcal/mol]       0.00000000 [kJ/mol]
      Exch10(S^2)                   0.00000000 [mEh]       0.00000000 [kcal/mol]       0.00000000 [kJ/mol]

    Induction                       0.00002319 [mEh]       0.00001455 [kcal/mol]       0.00006089 [kJ/mol]
      Ind20,r                      -0.00003139 [mEh]      -0.00001970 [kcal/mol]      -0.00008242 [kJ/mol]
      Exch-Ind20,r                  0.00000000 [mEh]       0.00000000 [kcal/mol]       0.00000000 [kJ/mol]
      delta HF,r (2)                0.00005458 [mEh]       0.00003425 [kcal/mol]       0.00014331 [kJ/mol]

    Dispersion                     -0.00034110 [mEh]      -0.00021404 [kcal/mol]      -0.00089556 [kJ/mol]
      Disp20                       -0.00034110 [mEh]      -0.00021404 [kcal/mol]      -0.00089556 [kJ/mol]
      Exch-Disp20                   0.00000000 [mEh]       0.00000000 [kcal/mol]       0.00000000 [kJ/mol]
      Disp20 (SS)                  -0.00017055 [mEh]      -0.00010702 [kcal/mol]      -0.00044778 [kJ/mol]
      Disp20 (OS)                  -0.00017055 [mEh]      -0.00010702 [kcal/mol]      -0.00044778 [kJ/mol]
      Exch-Disp20 (SS)              0.00000000 [mEh]       0.00000000 [kcal/mol]       0.00000000 [kJ/mol]
      Exch-Disp20 (OS)              0.00000000 [mEh]       0.00000000 [kcal/mol]       0.00000000 [kJ/mol]

  Total HF                          0.00848672 [mEh]       0.00532550 [kcal/mol]       0.02228188 [kJ/mol]
  Total SAPT0                       0.00814562 [mEh]       0.00511145 [kcal/mol]       0.02138632 [kJ/mol]

  Special recipe for scaled SAPT0 (see Manual):
    Electrostatics sSAPT0           0.00846353 [mEh]       0.00531094 [kcal/mol]       0.02222099 [kJ/mol]
    Exchange sSAPT0                 0.00000000 [mEh]       0.00000000 [kcal/mol]       0.00000000 [kJ/mol]
    Induction sSAPT0                0.00002319 [mEh]       0.00001455 [kcal/mol]       0.00006089 [kJ/mol]
    Dispersion sSAPT0              -0.00034110 [mEh]      -0.00021404 [kcal/mol]      -0.00089556 [kJ/mol]
  Total sSAPT0                      0.00814562 [mEh]       0.00511145 [kcal/mol]       0.02138632 [kJ/mol]
  --------------------------------------------------------------------------------------------------------

*** Psi4 exiting successfully. Buy a developer a beer!
