                               Psi4 1.4rc3

  ==> Input File <==

--------------------------------------------------------------------------
# PSI4 file produced by CrystaLattE

# Generated from:               pyrazole.xyz
# Psithon input for N-mer:      2mer-0+22
# Number of atoms per monomer:  [9, 9]
# Number of replicas:           1
# COM priority:                 8.299390900264e-04
# Minimum COM separations:      5.631
# Separation priority:          3.084965142133e-03
# Minimum monomer separations:  3.635
# Cutoff priority:              4.490903070702e-04
# Nuclear repulsion energy:     452.89306063121154

memory 7 GB

molecule Dimer_0_22 {
  N            6.27981210      -4.25303372       0.19313865
  N            6.06870777      -2.28125697       1.80544317
  H            3.66871156      -5.64628941      -1.96684001
  H            0.69034521      -2.37545694      -0.42864236
  H            3.35917442       0.17650601       3.09265017
  H            7.35266782      -1.99461311       2.90680702
  C            3.77952586      -1.21508453       1.76858172
  C            2.38242998      -2.55505538       0.04607681
  C            4.01771468      -4.38410490      -0.88761863
--
  N           10.53656684      -2.29338878      -7.94133892
  N           10.65542910      -4.33129582      -6.40416521
  H           13.20972957       0.10752118      -8.65936928
  H           16.10436613      -2.33501756      -5.90423177
  H           13.16794206      -6.04806657      -3.99959546
  H            9.19302089      -5.14127288      -6.01839988
  C           12.93826550      -4.66147149      -5.37511636
  C           14.42125794      -2.73179927      -6.26503882
  C           12.85995261      -1.34663146      -7.85673677
units = au
no_com
no_reorient
}

set {
  e_convergence 10
  d_convergence 10
  scf_type df
  mp2_type df
  cc_type df
  freeze_core true
}

energy('sapt0/aug-cc-pvdz')

--------------------------------------------------------------------------

  //              Dimer HF             //
    Molecular point group: c1
  Charge       = 0
  Multiplicity = 1
  Basis Set: AUG-CC-PVDZ
    Blend: AUG-CC-PVDZ
  Basis Set: (AUG-CC-PVDZ AUX)
    Blend: AUG-CC-PVDZ-JKFIT
  @DF-RHF Final Energy:  -449.52642542381426
    Total Energy =                       -449.5264254238142030
  //            Monomer A HF           //
    Molecular point group: c1
  Multiplicity = 1
  Basis Set: AUG-CC-PVDZ
    Blend: AUG-CC-PVDZ
  Basis Set: (AUG-CC-PVDZ AUX)
    Blend: AUG-CC-PVDZ-JKFIT
  @DF-RHF Final Energy:  -224.76249418679035
    Total Energy =                       -224.7624941867903487
  //            Monomer B HF           //
    Molecular point group: c1

    Geometry (in Bohr), charge = 0, multiplicity = 1:

       Center              X                  Y                   Z               Mass
    ------------   -----------------  -----------------  -----------------  -----------------
      Gh(N)           6.279812100000    -4.253033720000     0.193138650000    14.003074004430
      Gh(N)           6.068707770000    -2.281256970000     1.805443170000    14.003074004430
      Gh(H)           3.668711560000    -5.646289410000    -1.966840010000     1.007825032230
      Gh(H)           0.690345210000    -2.375456940000    -0.428642360000     1.007825032230
      Gh(H)           3.359174420000     0.176506010000     3.092650170000     1.007825032230
      Gh(H)           7.352667820000    -1.994613110000     2.906807020000     1.007825032230
      Gh(C)           3.779525860000    -1.215084530000     1.768581720000    12.000000000000
      Gh(C)           2.382429980000    -2.555055380000     0.046076810000    12.000000000000
      Gh(C)           4.017714680000    -4.384104900000    -0.887618630000    12.000000000000
         N           10.536566840000    -2.293388780000    -7.941338920000    14.003074004430
         N           10.655429100000    -4.331295820000    -6.404165210000    14.003074004430
         H           13.209729570000     0.107521180000    -8.659369280000     1.007825032230
         H           16.104366130000    -2.335017560000    -5.904231770000     1.007825032230
         H           13.167942060000    -6.048066570000    -3.999595460000     1.007825032230
         H            9.193020890000    -5.141272880000    -6.018399880000     1.007825032230
         C           12.938265500000    -4.661471490000    -5.375116360000    12.000000000000
         C           14.421257940000    -2.731799270000    -6.265038820000    12.000000000000
         C           12.859952610000    -1.346631460000    -7.856736770000    12.000000000000

  Charge       = 0
  Multiplicity = 1
  Basis Set: AUG-CC-PVDZ
    Blend: AUG-CC-PVDZ
  Basis Set: (AUG-CC-PVDZ AUX)
    Blend: AUG-CC-PVDZ-JKFIT

    Orbital Energies [Eh]
    ---------------------

    Doubly Occupied:

       1A    -15.636238     2A    -15.592294     3A    -11.279887
       4A    -11.237746     5A    -11.209836     6A     -1.386981
       7A     -1.121877     8A     -1.066903     9A     -0.872747
      10A     -0.837025    11A     -0.757249    12A     -0.645728
      13A     -0.620813    14A     -0.609165    15A     -0.583882
      16A     -0.461403    17A     -0.370706    18A     -0.346050

  @DF-RHF Final Energy:  -224.76256426258564

   => Energetics <=

    Nuclear Repulsion Energy =            166.6286028439395182
    One-Electron Energy =                -633.5092742755841755
    Two-Electron Energy =                 242.1181071690590159
    Total Energy =                       -224.7625642625856415

  Dipole Moment: [D]
     X:     0.7375      Y:    -1.4322      Z:     1.7861     Total:     2.4053

    SAPT Results
  --------------------------------------------------------------------------------------------------------
    Electrostatics                 -1.36244146 [mEh]      -0.85494493 [kcal/mol]      -3.57708957 [kJ/mol]
      Elst10,r                     -1.36244146 [mEh]      -0.85494493 [kcal/mol]      -3.57708957 [kJ/mol]

    Exchange                        0.19064535 [mEh]       0.11963176 [kcal/mol]       0.50053929 [kJ/mol]
      Exch10                        0.19064535 [mEh]       0.11963176 [kcal/mol]       0.50053929 [kJ/mol]
      Exch10(S^2)                   0.19060819 [mEh]       0.11960845 [kcal/mol]       0.50044174 [kJ/mol]

    Induction                      -0.19517832 [mEh]      -0.12247625 [kcal/mol]      -0.51244061 [kJ/mol]
      Ind20,r                      -0.23751164 [mEh]      -0.14904080 [kcal/mol]      -0.62358672 [kJ/mol]
      Exch-Ind20,r                  0.06199766 [mEh]       0.03890412 [kcal/mol]       0.16277483 [kJ/mol]
      delta HF,r (2)               -0.01966434 [mEh]      -0.01233956 [kcal/mol]      -0.05162872 [kJ/mol]

    Dispersion                     -1.09801802 [mEh]      -0.68901671 [kcal/mol]      -2.88284591 [kJ/mol]
      Disp20                       -1.12955515 [mEh]      -0.70880656 [kcal/mol]      -2.96564665 [kJ/mol]
      Exch-Disp20                   0.03153714 [mEh]       0.01978985 [kcal/mol]       0.08280074 [kJ/mol]
      Disp20 (SS)                  -0.56477758 [mEh]      -0.35440328 [kcal/mol]      -1.48282333 [kJ/mol]
      Disp20 (OS)                  -0.56477758 [mEh]      -0.35440328 [kcal/mol]      -1.48282333 [kJ/mol]
      Exch-Disp20 (SS)              0.02067579 [mEh]       0.01297425 [kcal/mol]       0.05428428 [kJ/mol]
      Exch-Disp20 (OS)              0.01086135 [mEh]       0.00681560 [kcal/mol]       0.02851647 [kJ/mol]

  Total HF                         -1.36697444 [mEh]      -0.85778941 [kcal/mol]      -3.58899089 [kJ/mol]
  Total SAPT0                      -2.46499245 [mEh]      -1.54680612 [kcal/mol]      -6.47183680 [kJ/mol]

  Special recipe for scaled SAPT0 (see Manual):
    Electrostatics sSAPT0          -1.36244146 [mEh]      -0.85494493 [kcal/mol]      -3.57708957 [kJ/mol]
    Exchange sSAPT0                 0.19064535 [mEh]       0.11963176 [kcal/mol]       0.50053929 [kJ/mol]
    Induction sSAPT0               -0.19514206 [mEh]      -0.12245349 [kcal/mol]      -0.51234540 [kJ/mol]
    Dispersion sSAPT0              -1.09799957 [mEh]      -0.68900513 [kcal/mol]      -2.88279747 [kJ/mol]
  Total sSAPT0                     -2.46493775 [mEh]      -1.54677179 [kcal/mol]      -6.47169316 [kJ/mol]
  --------------------------------------------------------------------------------------------------------

*** Psi4 exiting successfully. Buy a developer a beer!
