                               Psi4 1.4rc3

  ==> Input File <==

--------------------------------------------------------------------------
# PSI4 file produced by CrystaLattE

# Generated from:               pyrazole.xyz
# Psithon input for N-mer:      2mer-0+672
# Number of atoms per monomer:  [9, 9]
# Number of replicas:           1
# COM priority:                 1.473540204156e-05
# Minimum COM separations:      21.585
# Separation priority:          2.397762121492e-05
# Minimum monomer separations:  18.351
# Cutoff priority:              6.914192397154e-07
# Nuclear repulsion energy:     365.0128681674677

memory 7 GB

molecule Dimer_0_672 {
  N            6.27981210      -4.25303372       0.19313865
  N            6.06870777      -2.28125697       1.80544317
  H            3.66871156      -5.64628941      -1.96684001
  H            0.69034521      -2.37545694      -0.42864236
  H            3.35917442       0.17650601       3.09265017
  H            7.35266782      -1.99461311       2.90680702
  C            3.77952586      -1.21508453       1.76858172
  C            2.38242998      -2.55505538       0.04607681
  C            4.01771468      -4.38410490      -0.88761863
--
  N           41.49028077      -9.49302627      11.25733365
  N           41.60914304      -7.45511923      12.79450737
  H           44.16344351     -11.89393623      10.53930329
  H           47.05808007      -9.45139749      13.29444080
  H           44.12165600      -5.73834848      15.19907711
  H           40.14673482      -6.64514217      13.18027269
  C           43.89197944      -7.12494356      13.82355622
  C           45.37497187      -9.05461578      12.93363375
  C           43.81366654     -10.43978359      11.34193580
units = au
no_com
no_reorient
}

set {
  e_convergence 10
  d_convergence 10
  scf_type df
  mp2_type df
  cc_type df
  freeze_core true
}

energy('sapt0/aug-cc-pvdz')

--------------------------------------------------------------------------

  //              Dimer HF             //
    Molecular point group: c1
  Charge       = 0
  Multiplicity = 1
  Basis Set: AUG-CC-PVDZ
    Blend: AUG-CC-PVDZ
  Basis Set: (AUG-CC-PVDZ AUX)
    Blend: AUG-CC-PVDZ-JKFIT
  @DF-RHF Final Energy:  -449.52475112195373
    Total Energy =                       -449.5247511219537273
  //            Monomer A HF           //
    Molecular point group: c1
  Multiplicity = 1
  Basis Set: AUG-CC-PVDZ
    Blend: AUG-CC-PVDZ
  Basis Set: (AUG-CC-PVDZ AUX)
    Blend: AUG-CC-PVDZ-JKFIT
  @DF-RHF Final Energy:  -224.76233952097598
    Total Energy =                       -224.7623395209759849
  //            Monomer B HF           //
    Molecular point group: c1

    Geometry (in Bohr), charge = 0, multiplicity = 1:

       Center              X                  Y                   Z               Mass
    ------------   -----------------  -----------------  -----------------  -----------------
      Gh(N)           6.279812100000    -4.253033720000     0.193138650000    14.003074004430
      Gh(N)           6.068707770000    -2.281256970000     1.805443170000    14.003074004430
      Gh(H)           3.668711560000    -5.646289410000    -1.966840010000     1.007825032230
      Gh(H)           0.690345210000    -2.375456940000    -0.428642360000     1.007825032230
      Gh(H)           3.359174420000     0.176506010000     3.092650170000     1.007825032230
      Gh(H)           7.352667820000    -1.994613110000     2.906807020000     1.007825032230
      Gh(C)           3.779525860000    -1.215084530000     1.768581720000    12.000000000000
      Gh(C)           2.382429980000    -2.555055380000     0.046076810000    12.000000000000
      Gh(C)           4.017714680000    -4.384104900000    -0.887618630000    12.000000000000
         N           41.490280770000    -9.493026270000    11.257333650000    14.003074004430
         N           41.609143040000    -7.455119230000    12.794507370000    14.003074004430
         H           44.163443510000   -11.893936230000    10.539303290000     1.007825032230
         H           47.058080070000    -9.451397490000    13.294440800000     1.007825032230
         H           44.121656000000    -5.738348480000    15.199077110000     1.007825032230
         H           40.146734820000    -6.645142170000    13.180272690000     1.007825032230
         C           43.891979440000    -7.124943560000    13.823556220000    12.000000000000
         C           45.374971870000    -9.054615780000    12.933633750000    12.000000000000
         C           43.813666540000   -10.439783590000    11.341935800000    12.000000000000

  Charge       = 0
  Multiplicity = 1
  Basis Set: AUG-CC-PVDZ
    Blend: AUG-CC-PVDZ
  Basis Set: (AUG-CC-PVDZ AUX)
    Blend: AUG-CC-PVDZ-JKFIT

    Orbital Energies [Eh]
    ---------------------

    Doubly Occupied:

       1A    -15.636233     2A    -15.592291     3A    -11.279903
       4A    -11.237759     5A    -11.209884     6A     -1.387001
       7A     -1.121894     8A     -1.066928     9A     -0.872759
      10A     -0.837039    11A     -0.757272    12A     -0.645745
      13A     -0.620828    14A     -0.609177    15A     -0.583905
      16A     -0.461413    17A     -0.370715    18A     -0.346055

  @DF-RHF Final Energy:  -224.76243506405226

   => Energetics <=

    Nuclear Repulsion Energy =            166.6286027570578483
    One-Electron Energy =                -633.5084733057865378
    Two-Electron Energy =                 242.1174354846764629
    Total Energy =                       -224.7624350640522550

  Dipole Moment: [D]
     X:     0.7394      Y:     1.4336      Z:     1.7871     Total:     2.4074

    SAPT Results
  --------------------------------------------------------------------------------------------------------
    Electrostatics                  0.02343905 [mEh]       0.01470823 [kcal/mol]       0.06153923 [kJ/mol]
      Elst10,r                      0.02343905 [mEh]       0.01470823 [kcal/mol]       0.06153923 [kJ/mol]

    Exchange                        0.00000000 [mEh]       0.00000000 [kcal/mol]       0.00000000 [kJ/mol]
      Exch10                        0.00000000 [mEh]       0.00000000 [kcal/mol]       0.00000000 [kJ/mol]
      Exch10(S^2)                   0.00000000 [mEh]       0.00000000 [kcal/mol]       0.00000000 [kJ/mol]

    Induction                       0.00002402 [mEh]       0.00001507 [kcal/mol]       0.00006307 [kJ/mol]
      Ind20,r                      -0.00001948 [mEh]      -0.00001222 [kcal/mol]      -0.00005115 [kJ/mol]
      Exch-Ind20,r                  0.00000000 [mEh]       0.00000000 [kcal/mol]       0.00000000 [kJ/mol]
      delta HF,r (2)                0.00004350 [mEh]       0.00002730 [kcal/mol]       0.00011421 [kJ/mol]

    Dispersion                     -0.00027015 [mEh]      -0.00016952 [kcal/mol]      -0.00070927 [kJ/mol]
      Disp20                       -0.00027015 [mEh]      -0.00016952 [kcal/mol]      -0.00070927 [kJ/mol]
      Exch-Disp20                   0.00000000 [mEh]       0.00000000 [kcal/mol]       0.00000000 [kJ/mol]
      Disp20 (SS)                  -0.00013507 [mEh]      -0.00008476 [kcal/mol]      -0.00035464 [kJ/mol]
      Disp20 (OS)                  -0.00013507 [mEh]      -0.00008476 [kcal/mol]      -0.00035464 [kJ/mol]
      Exch-Disp20 (SS)              0.00000000 [mEh]       0.00000000 [kcal/mol]       0.00000000 [kJ/mol]
      Exch-Disp20 (OS)              0.00000000 [mEh]       0.00000000 [kcal/mol]       0.00000000 [kJ/mol]

  Total HF                          0.02346307 [mEh]       0.01472330 [kcal/mol]       0.06160229 [kJ/mol]
  Total SAPT0                       0.02319293 [mEh]       0.01455378 [kcal/mol]       0.06089302 [kJ/mol]

  Special recipe for scaled SAPT0 (see Manual):
    Electrostatics sSAPT0           0.02343905 [mEh]       0.01470823 [kcal/mol]       0.06153923 [kJ/mol]
    Exchange sSAPT0                 0.00000000 [mEh]       0.00000000 [kcal/mol]       0.00000000 [kJ/mol]
    Induction sSAPT0                0.00002402 [mEh]       0.00001507 [kcal/mol]       0.00006307 [kJ/mol]
    Dispersion sSAPT0              -0.00027015 [mEh]      -0.00016952 [kcal/mol]      -0.00070927 [kJ/mol]
  Total sSAPT0                      0.02319293 [mEh]       0.01455378 [kcal/mol]       0.06089302 [kJ/mol]
  --------------------------------------------------------------------------------------------------------

*** Psi4 exiting successfully. Buy a developer a beer!
