                               Psi4 1.4rc3

  ==> Input File <==

--------------------------------------------------------------------------
# PSI4 file produced by CrystaLattE

# Generated from:               pyrazole.xyz
# Psithon input for N-mer:      2mer-0+249
# Number of atoms per monomer:  [9, 9]
# Number of replicas:           1
# COM priority:                 2.567804720093e-05
# Minimum COM separations:      17.937
# Separation priority:          4.424686092729e-05
# Minimum monomer separations:  14.961
# Cutoff priority:              1.564984187228e-06
# Nuclear repulsion energy:     371.4992538314592

memory 7 GB

molecule Dimer_0_249 {
  N            6.27981210      -4.25303372       0.19313865
  N            6.06870777      -2.28125697       1.80544317
  H            3.66871156      -5.64628941      -1.96684001
  H            0.69034521      -2.37545694      -0.42864236
  H            3.35917442       0.17650601       3.09265017
  H            7.35266782      -1.99461311       2.90680702
  C            3.77952586      -1.21508453       1.76858172
  C            2.38242998      -2.55505538       0.04607681
  C            4.01771468      -4.38410490      -0.88761863
--
  N           -4.94029013      -2.29338878     -33.53956902
  N           -4.82142787      -4.33129582     -32.00239530
  H           -2.26712739       0.10752118     -34.25759937
  H            0.62750917      -2.33501756     -31.50246187
  H           -2.30891491      -6.04806657     -29.59782556
  H           -6.28383608      -5.14127288     -31.61662997
  C           -2.53859146      -4.66147149     -30.97334645
  C           -1.05559903      -2.73179927     -31.86326892
  C           -2.61690436      -1.34663146     -33.45496687
units = au
no_com
no_reorient
}

set {
  e_convergence 10
  d_convergence 10
  scf_type df
  mp2_type df
  cc_type df
  freeze_core true
}

energy('sapt0/aug-cc-pvdz')

--------------------------------------------------------------------------

  //              Dimer HF             //
    Molecular point group: c1
  Charge       = 0
  Multiplicity = 1
  Basis Set: AUG-CC-PVDZ
    Blend: AUG-CC-PVDZ
  Basis Set: (AUG-CC-PVDZ AUX)
    Blend: AUG-CC-PVDZ-JKFIT
  @DF-RHF Final Energy:  -449.52479225788915
    Total Energy =                       -449.5247922578892030
  //            Monomer A HF           //
    Molecular point group: c1
  Multiplicity = 1
  Basis Set: AUG-CC-PVDZ
    Blend: AUG-CC-PVDZ
  Basis Set: (AUG-CC-PVDZ AUX)
    Blend: AUG-CC-PVDZ-JKFIT
  @DF-RHF Final Energy:  -224.76233952286444
    Total Energy =                       -224.7623395228644370
  //            Monomer B HF           //
    Molecular point group: c1

    Geometry (in Bohr), charge = 0, multiplicity = 1:

       Center              X                  Y                   Z               Mass
    ------------   -----------------  -----------------  -----------------  -----------------
      Gh(N)           6.279812100000    -4.253033720000     0.193138650000    14.003074004430
      Gh(N)           6.068707770000    -2.281256970000     1.805443170000    14.003074004430
      Gh(H)           3.668711560000    -5.646289410000    -1.966840010000     1.007825032230
      Gh(H)           0.690345210000    -2.375456940000    -0.428642360000     1.007825032230
      Gh(H)           3.359174420000     0.176506010000     3.092650170000     1.007825032230
      Gh(H)           7.352667820000    -1.994613110000     2.906807020000     1.007825032230
      Gh(C)           3.779525860000    -1.215084530000     1.768581720000    12.000000000000
      Gh(C)           2.382429980000    -2.555055380000     0.046076810000    12.000000000000
      Gh(C)           4.017714680000    -4.384104900000    -0.887618630000    12.000000000000
         N           -4.940290130000    -2.293388780000   -33.539569020000    14.003074004430
         N           -4.821427870000    -4.331295820000   -32.002395300000    14.003074004430
         H           -2.267127390000     0.107521180000   -34.257599370000     1.007825032230
         H            0.627509170000    -2.335017560000   -31.502461870000     1.007825032230
         H           -2.308914910000    -6.048066570000   -29.597825560000     1.007825032230
         H           -6.283836080000    -5.141272880000   -31.616629970000     1.007825032230
         C           -2.538591460000    -4.661471490000   -30.973346450000    12.000000000000
         C           -1.055599030000    -2.731799270000   -31.863268920000    12.000000000000
         C           -2.616904360000    -1.346631460000   -33.454966870000    12.000000000000

  Charge       = 0
  Multiplicity = 1
  Basis Set: AUG-CC-PVDZ
    Blend: AUG-CC-PVDZ
  Basis Set: (AUG-CC-PVDZ AUX)
    Blend: AUG-CC-PVDZ-JKFIT

    Orbital Energies [Eh]
    ---------------------

    Doubly Occupied:

       1A    -15.636233     2A    -15.592291     3A    -11.279903
       4A    -11.237759     5A    -11.209884     6A     -1.387001
       7A     -1.121894     8A     -1.066928     9A     -0.872759
      10A     -0.837039    11A     -0.757272    12A     -0.645745
      13A     -0.620828    14A     -0.609177    15A     -0.583905
      16A     -0.461413    17A     -0.370715    18A     -0.346055

  @DF-RHF Final Energy:  -224.76243506062752

   => Energetics <=

    Nuclear Repulsion Energy =            166.6286026903197808
    One-Electron Energy =                -633.5084731645762304
    Two-Electron Energy =                 242.1174354136289253
    Total Energy =                       -224.7624350606275243

  Dipole Moment: [D]
     X:     0.7394      Y:    -1.4336      Z:     1.7871     Total:     2.4074

    SAPT Results
  --------------------------------------------------------------------------------------------------------
    Electrostatics                 -0.01770855 [mEh]      -0.01111228 [kcal/mol]      -0.04649378 [kJ/mol]
      Elst10,r                     -0.01770855 [mEh]      -0.01111228 [kcal/mol]      -0.04649378 [kJ/mol]

    Exchange                        0.00000000 [mEh]       0.00000000 [kcal/mol]       0.00000000 [kJ/mol]
      Exch10                        0.00000000 [mEh]       0.00000000 [kcal/mol]       0.00000000 [kJ/mol]
      Exch10(S^2)                   0.00000000 [mEh]       0.00000000 [kcal/mol]       0.00000000 [kJ/mol]

    Induction                       0.00003415 [mEh]       0.00002143 [kcal/mol]       0.00008966 [kJ/mol]
      Ind20,r                      -0.00005059 [mEh]      -0.00003175 [kcal/mol]      -0.00013284 [kJ/mol]
      Exch-Ind20,r                  0.00000000 [mEh]       0.00000000 [kcal/mol]       0.00000000 [kJ/mol]
      delta HF,r (2)                0.00008474 [mEh]       0.00005318 [kcal/mol]       0.00022250 [kJ/mol]

    Dispersion                     -0.00078523 [mEh]      -0.00049274 [kcal/mol]      -0.00206162 [kJ/mol]
      Disp20                       -0.00078523 [mEh]      -0.00049274 [kcal/mol]      -0.00206162 [kJ/mol]
      Exch-Disp20                   0.00000000 [mEh]       0.00000000 [kcal/mol]       0.00000000 [kJ/mol]
      Disp20 (SS)                  -0.00039262 [mEh]      -0.00024637 [kcal/mol]      -0.00103081 [kJ/mol]
      Disp20 (OS)                  -0.00039262 [mEh]      -0.00024637 [kcal/mol]      -0.00103081 [kJ/mol]
      Exch-Disp20 (SS)              0.00000000 [mEh]       0.00000000 [kcal/mol]       0.00000000 [kJ/mol]
      Exch-Disp20 (OS)              0.00000000 [mEh]       0.00000000 [kcal/mol]       0.00000000 [kJ/mol]

  Total HF                         -0.01767440 [mEh]      -0.01109085 [kcal/mol]      -0.04640412 [kJ/mol]
  Total SAPT0                      -0.01845963 [mEh]      -0.01158359 [kcal/mol]      -0.04846575 [kJ/mol]

  Special recipe for scaled SAPT0 (see Manual):
    Electrostatics sSAPT0          -0.01770855 [mEh]      -0.01111228 [kcal/mol]      -0.04649378 [kJ/mol]
    Exchange sSAPT0                 0.00000000 [mEh]       0.00000000 [kcal/mol]       0.00000000 [kJ/mol]
    Induction sSAPT0                0.00003415 [mEh]       0.00002143 [kcal/mol]       0.00008966 [kJ/mol]
    Dispersion sSAPT0              -0.00078523 [mEh]      -0.00049274 [kcal/mol]      -0.00206162 [kJ/mol]
  Total sSAPT0                     -0.01845963 [mEh]      -0.01158359 [kcal/mol]      -0.04846575 [kJ/mol]
  --------------------------------------------------------------------------------------------------------

*** Psi4 exiting successfully. Buy a developer a beer!
