                               Psi4 1.4rc3

  ==> Input File <==

--------------------------------------------------------------------------
# PSI4 file produced by CrystaLattE

# Generated from:               pyrazole.xyz
# Psithon input for N-mer:      2mer-0+575
# Number of atoms per monomer:  [9, 9]
# Number of replicas:           1
# COM priority:                 1.678945482929e-05
# Minimum COM separations:      20.666
# Separation priority:          2.728140840732e-05
# Minimum monomer separations:  17.578
# Cutoff priority:              8.212758444581e-07
# Nuclear repulsion energy:     366.42071381927053

memory 7 GB

molecule Dimer_0_575 {
  N            6.27981210      -4.25303372       0.19313865
  N            6.06870777      -2.28125697       1.80544317
  H            3.66871156      -5.64628941      -1.96684001
  H            0.69034521      -2.37545694      -0.42864236
  H            3.35917442       0.17650601       3.09265017
  H            7.35266782      -1.99461311       2.90680702
  C            3.77952586      -1.21508453       1.76858172
  C            2.38242998      -2.55505538       0.04607681
  C            4.01771468      -4.38410490      -0.88761863
--
  N           41.49028077      -9.49302627      -1.54178140
  N           41.60914304      -7.45511923      -0.00460768
  H           44.16344351     -11.89393623      -2.25981175
  H           47.05808007      -9.45139749       0.49532575
  H           44.12165600      -5.73834848       2.39996206
  H           40.14673482      -6.64514217       0.38115765
  C           43.89197944      -7.12494356       1.02444117
  C           45.37497187      -9.05461578       0.13451870
  C           43.81366654     -10.43978359      -1.45717925
units = au
no_com
no_reorient
}

set {
  e_convergence 10
  d_convergence 10
  scf_type df
  mp2_type df
  cc_type df
  freeze_core true
}

energy('sapt0/aug-cc-pvdz')

--------------------------------------------------------------------------

  //              Dimer HF             //
    Molecular point group: c1
  Charge       = 0
  Multiplicity = 1
  Basis Set: AUG-CC-PVDZ
    Blend: AUG-CC-PVDZ
  Basis Set: (AUG-CC-PVDZ AUX)
    Blend: AUG-CC-PVDZ-JKFIT
  @DF-RHF Final Energy:  -449.52475076264693
    Total Energy =                       -449.5247507626469314
  //            Monomer A HF           //
    Molecular point group: c1
  Multiplicity = 1
  Basis Set: AUG-CC-PVDZ
    Blend: AUG-CC-PVDZ
  Basis Set: (AUG-CC-PVDZ AUX)
    Blend: AUG-CC-PVDZ-JKFIT
  @DF-RHF Final Energy:  -224.76233952186018
    Total Energy =                       -224.7623395218601843
  //            Monomer B HF           //
    Molecular point group: c1

    Geometry (in Bohr), charge = 0, multiplicity = 1:

       Center              X                  Y                   Z               Mass
    ------------   -----------------  -----------------  -----------------  -----------------
      Gh(N)           6.279812100000    -4.253033720000     0.193138650000    14.003074004430
      Gh(N)           6.068707770000    -2.281256970000     1.805443170000    14.003074004430
      Gh(H)           3.668711560000    -5.646289410000    -1.966840010000     1.007825032230
      Gh(H)           0.690345210000    -2.375456940000    -0.428642360000     1.007825032230
      Gh(H)           3.359174420000     0.176506010000     3.092650170000     1.007825032230
      Gh(H)           7.352667820000    -1.994613110000     2.906807020000     1.007825032230
      Gh(C)           3.779525860000    -1.215084530000     1.768581720000    12.000000000000
      Gh(C)           2.382429980000    -2.555055380000     0.046076810000    12.000000000000
      Gh(C)           4.017714680000    -4.384104900000    -0.887618630000    12.000000000000
         N           41.490280770000    -9.493026270000    -1.541781400000    14.003074004430
         N           41.609143040000    -7.455119230000    -0.004607680000    14.003074004430
         H           44.163443510000   -11.893936230000    -2.259811750000     1.007825032230
         H           47.058080070000    -9.451397490000     0.495325750000     1.007825032230
         H           44.121656000000    -5.738348480000     2.399962060000     1.007825032230
         H           40.146734820000    -6.645142170000     0.381157650000     1.007825032230
         C           43.891979440000    -7.124943560000     1.024441170000    12.000000000000
         C           45.374971870000    -9.054615780000     0.134518700000    12.000000000000
         C           43.813666540000   -10.439783590000    -1.457179250000    12.000000000000

  Charge       = 0
  Multiplicity = 1
  Basis Set: AUG-CC-PVDZ
    Blend: AUG-CC-PVDZ
  Basis Set: (AUG-CC-PVDZ AUX)
    Blend: AUG-CC-PVDZ-JKFIT

    Orbital Energies [Eh]
    ---------------------

    Doubly Occupied:

       1A    -15.636233     2A    -15.592291     3A    -11.279903
       4A    -11.237759     5A    -11.209884     6A     -1.387001
       7A     -1.121894     8A     -1.066928     9A     -0.872759
      10A     -0.837039    11A     -0.757272    12A     -0.645745
      13A     -0.620828    14A     -0.609177    15A     -0.583905
      16A     -0.461413    17A     -0.370715    18A     -0.346055

  @DF-RHF Final Energy:  -224.76243506274719

   => Energetics <=

    Nuclear Repulsion Energy =            166.6286027647857964
    One-Electron Energy =                -633.5084733192912836
    Two-Electron Energy =                 242.1174354917583003
    Total Energy =                       -224.7624350627471870

  Dipole Moment: [D]
     X:     0.7394      Y:     1.4336      Z:     1.7871     Total:     2.4074

    SAPT Results
  --------------------------------------------------------------------------------------------------------
    Electrostatics                  0.02380512 [mEh]       0.01493794 [kcal/mol]       0.06250034 [kJ/mol]
      Elst10,r                      0.02380512 [mEh]       0.01493794 [kcal/mol]       0.06250034 [kJ/mol]

    Exchange                        0.00000000 [mEh]       0.00000000 [kcal/mol]       0.00000000 [kJ/mol]
      Exch10                        0.00000000 [mEh]       0.00000000 [kcal/mol]       0.00000000 [kJ/mol]
      Exch10(S^2)                   0.00000000 [mEh]       0.00000000 [kcal/mol]       0.00000000 [kJ/mol]

    Induction                       0.00001684 [mEh]       0.00001057 [kcal/mol]       0.00004421 [kJ/mol]
      Ind20,r                      -0.00002736 [mEh]      -0.00001717 [kcal/mol]      -0.00007184 [kJ/mol]
      Exch-Ind20,r                  0.00000000 [mEh]       0.00000000 [kcal/mol]       0.00000000 [kJ/mol]
      delta HF,r (2)                0.00004420 [mEh]       0.00002774 [kcal/mol]       0.00011605 [kJ/mol]

    Dispersion                     -0.00034559 [mEh]      -0.00021686 [kcal/mol]      -0.00090734 [kJ/mol]
      Disp20                       -0.00034559 [mEh]      -0.00021686 [kcal/mol]      -0.00090734 [kJ/mol]
      Exch-Disp20                   0.00000000 [mEh]       0.00000000 [kcal/mol]       0.00000000 [kJ/mol]
      Disp20 (SS)                  -0.00017279 [mEh]      -0.00010843 [kcal/mol]      -0.00045367 [kJ/mol]
      Disp20 (OS)                  -0.00017279 [mEh]      -0.00010843 [kcal/mol]      -0.00045367 [kJ/mol]
      Exch-Disp20 (SS)              0.00000000 [mEh]       0.00000000 [kcal/mol]       0.00000000 [kJ/mol]
      Exch-Disp20 (OS)              0.00000000 [mEh]       0.00000000 [kcal/mol]       0.00000000 [kJ/mol]

  Total HF                          0.02382196 [mEh]       0.01494851 [kcal/mol]       0.06254455 [kJ/mol]
  Total SAPT0                       0.02347637 [mEh]       0.01473165 [kcal/mol]       0.06163721 [kJ/mol]

  Special recipe for scaled SAPT0 (see Manual):
    Electrostatics sSAPT0           0.02380512 [mEh]       0.01493794 [kcal/mol]       0.06250034 [kJ/mol]
    Exchange sSAPT0                 0.00000000 [mEh]       0.00000000 [kcal/mol]       0.00000000 [kJ/mol]
    Induction sSAPT0                0.00001684 [mEh]       0.00001057 [kcal/mol]       0.00004421 [kJ/mol]
    Dispersion sSAPT0              -0.00034559 [mEh]      -0.00021686 [kcal/mol]      -0.00090734 [kJ/mol]
  Total sSAPT0                      0.02347637 [mEh]       0.01473165 [kcal/mol]       0.06163721 [kJ/mol]
  --------------------------------------------------------------------------------------------------------

*** Psi4 exiting successfully. Buy a developer a beer!
