                               Psi4 1.4rc3

  ==> Input File <==

--------------------------------------------------------------------------
# PSI4 file produced by CrystaLattE

# Generated from:               pyrazole.xyz
# Psithon input for N-mer:      2mer-0+380
# Number of atoms per monomer:  [9, 9]
# Number of replicas:           2
# COM priority:                 1.680832999277e-05
# Minimum COM separations:      20.658
# Separation priority:          2.567268276873e-05
# Minimum monomer separations:  17.938
# Cutoff priority:              7.573471680943e-07
# Nuclear repulsion energy:     366.4370159467873

memory 7 GB

molecule Dimer_0_380 {
  N            6.27981210      -4.25303372       0.19313865
  N            6.06870777      -2.28125697       1.80544317
  H            3.66871156      -5.64628941      -1.96684001
  H            0.69034521      -2.37545694      -0.42864236
  H            3.35917442       0.17650601       3.09265017
  H            7.35266782      -1.99461311       2.90680702
  C            3.77952586      -1.21508453       1.76858172
  C            2.38242998      -2.55505538       0.04607681
  C            4.01771468      -4.38410490      -0.88761863
--
  N          -24.67390184     -28.04090619       0.19313865
  N          -24.88500617     -26.06912944       1.80544317
  H          -27.28500238     -29.43416188      -1.96684001
  H          -30.26336873     -26.16332941      -0.42864236
  H          -27.59453951     -23.61136645       3.09265017
  H          -23.60104611     -25.78248557       2.90680702
  C          -27.17418808     -25.00295699       1.76858172
  C          -28.57128396     -26.34292785       0.04607681
  C          -26.93599925     -28.17197736      -0.88761863
units = au
no_com
no_reorient
}

set {
  e_convergence 10
  d_convergence 10
  scf_type df
  mp2_type df
  cc_type df
  freeze_core true
}

energy('sapt0/aug-cc-pvdz')

--------------------------------------------------------------------------

  //              Dimer HF             //
    Molecular point group: c1
  Charge       = 0
  Multiplicity = 1
  Basis Set: AUG-CC-PVDZ
    Blend: AUG-CC-PVDZ
  Basis Set: (AUG-CC-PVDZ AUX)
    Blend: AUG-CC-PVDZ-JKFIT
  @DF-RHF Final Energy:  -449.52466640252993
    Total Energy =                       -449.5246664025298742
  //            Monomer A HF           //
    Molecular point group: c1
  Multiplicity = 1
  Basis Set: AUG-CC-PVDZ
    Blend: AUG-CC-PVDZ
  Basis Set: (AUG-CC-PVDZ AUX)
    Blend: AUG-CC-PVDZ-JKFIT
  @DF-RHF Final Energy:  -224.76233952084641
    Total Energy =                       -224.7623395208464103
  //            Monomer B HF           //
    Molecular point group: c1

    Geometry (in Bohr), charge = 0, multiplicity = 1:

       Center              X                  Y                   Z               Mass
    ------------   -----------------  -----------------  -----------------  -----------------
      Gh(N)           6.279812100000    -4.253033720000     0.193138650000    14.003074004430
      Gh(N)           6.068707770000    -2.281256970000     1.805443170000    14.003074004430
      Gh(H)           3.668711560000    -5.646289410000    -1.966840010000     1.007825032230
      Gh(H)           0.690345210000    -2.375456940000    -0.428642360000     1.007825032230
      Gh(H)           3.359174420000     0.176506010000     3.092650170000     1.007825032230
      Gh(H)           7.352667820000    -1.994613110000     2.906807020000     1.007825032230
      Gh(C)           3.779525860000    -1.215084530000     1.768581720000    12.000000000000
      Gh(C)           2.382429980000    -2.555055380000     0.046076810000    12.000000000000
      Gh(C)           4.017714680000    -4.384104900000    -0.887618630000    12.000000000000
         N          -24.673901840000   -28.040906190000     0.193138650000    14.003074004430
         N          -24.885006170000   -26.069129440000     1.805443170000    14.003074004430
         H          -27.285002380000   -29.434161880000    -1.966840010000     1.007825032230
         H          -30.263368730000   -26.163329410000    -0.428642360000     1.007825032230
         H          -27.594539510000   -23.611366450000     3.092650170000     1.007825032230
         H          -23.601046110000   -25.782485570000     2.906807020000     1.007825032230
         C          -27.174188080000   -25.002956990000     1.768581720000    12.000000000000
         C          -28.571283960000   -26.342927850000     0.046076810000    12.000000000000
         C          -26.935999250000   -28.171977360000    -0.887618630000    12.000000000000

  Charge       = 0
  Multiplicity = 1
  Basis Set: AUG-CC-PVDZ
    Blend: AUG-CC-PVDZ
  Basis Set: (AUG-CC-PVDZ AUX)
    Blend: AUG-CC-PVDZ-JKFIT

    Orbital Energies [Eh]
    ---------------------

    Doubly Occupied:

       1A    -15.636223     2A    -15.592313     3A    -11.279894
       4A    -11.237784     5A    -11.209891     6A     -1.386922
       7A     -1.121901     8A     -1.066898     9A     -0.872768
      10A     -0.837061    11A     -0.757292    12A     -0.645746
      13A     -0.620834    14A     -0.609140    15A     -0.583920
      16A     -0.461404    17A     -0.370721    18A     -0.346048

  @DF-RHF Final Energy:  -224.76233952495446

   => Energetics <=

    Nuclear Repulsion Energy =            166.6240564155107222
    One-Electron Energy =                -633.4992733344020053
    Two-Electron Energy =                 242.1128773939368273
    Total Energy =                       -224.7623395249544558

  Dipole Moment: [D]
     X:    -1.0235      Y:     1.6055      Z:     1.4733     Total:     2.4075

    SAPT Results
  --------------------------------------------------------------------------------------------------------
    Electrostatics                  0.01259754 [mEh]       0.00790507 [kcal/mol]       0.03307483 [kJ/mol]
      Elst10,r                      0.01259754 [mEh]       0.00790507 [kcal/mol]       0.03307483 [kJ/mol]

    Exchange                        0.00000000 [mEh]       0.00000000 [kcal/mol]       0.00000000 [kJ/mol]
      Exch10                        0.00000000 [mEh]       0.00000000 [kcal/mol]       0.00000000 [kJ/mol]
      Exch10(S^2)                   0.00000000 [mEh]       0.00000000 [kcal/mol]       0.00000000 [kJ/mol]

    Induction                       0.00004573 [mEh]       0.00002870 [kcal/mol]       0.00012007 [kJ/mol]
      Ind20,r                      -0.00001360 [mEh]      -0.00000854 [kcal/mol]      -0.00003571 [kJ/mol]
      Exch-Ind20,r                  0.00000000 [mEh]       0.00000000 [kcal/mol]       0.00000000 [kJ/mol]
      delta HF,r (2)                0.00005934 [mEh]       0.00003723 [kcal/mol]       0.00015578 [kJ/mol]

    Dispersion                     -0.00032232 [mEh]      -0.00020226 [kcal/mol]      -0.00084626 [kJ/mol]
      Disp20                       -0.00032232 [mEh]      -0.00020226 [kcal/mol]      -0.00084626 [kJ/mol]
      Exch-Disp20                   0.00000000 [mEh]       0.00000000 [kcal/mol]       0.00000000 [kJ/mol]
      Disp20 (SS)                  -0.00016116 [mEh]      -0.00010113 [kcal/mol]      -0.00042313 [kJ/mol]
      Disp20 (OS)                  -0.00016116 [mEh]      -0.00010113 [kcal/mol]      -0.00042313 [kJ/mol]
      Exch-Disp20 (SS)              0.00000000 [mEh]       0.00000000 [kcal/mol]       0.00000000 [kJ/mol]
      Exch-Disp20 (OS)              0.00000000 [mEh]       0.00000000 [kcal/mol]       0.00000000 [kJ/mol]

  Total HF                          0.01264327 [mEh]       0.00793377 [kcal/mol]       0.03319490 [kJ/mol]
  Total SAPT0                       0.01232095 [mEh]       0.00773151 [kcal/mol]       0.03234864 [kJ/mol]

  Special recipe for scaled SAPT0 (see Manual):
    Electrostatics sSAPT0           0.01259754 [mEh]       0.00790507 [kcal/mol]       0.03307483 [kJ/mol]
    Exchange sSAPT0                 0.00000000 [mEh]       0.00000000 [kcal/mol]       0.00000000 [kJ/mol]
    Induction sSAPT0                0.00004573 [mEh]       0.00002870 [kcal/mol]       0.00012007 [kJ/mol]
    Dispersion sSAPT0              -0.00032232 [mEh]      -0.00020226 [kcal/mol]      -0.00084626 [kJ/mol]
  Total sSAPT0                      0.01232095 [mEh]       0.00773151 [kcal/mol]       0.03234864 [kJ/mol]
  --------------------------------------------------------------------------------------------------------

*** Psi4 exiting successfully. Buy a developer a beer!
