                               Psi4 1.4rc3

  ==> Input File <==

--------------------------------------------------------------------------
# PSI4 file produced by CrystaLattE

# Generated from:               pyrazole.xyz
# Psithon input for N-mer:      2mer-0+125
# Number of atoms per monomer:  [9, 9]
# Number of replicas:           2
# COM priority:                 5.073423745789e-05
# Minimum COM separations:      14.294
# Separation priority:          6.328148358330e-05
# Minimum monomer separations:  13.279
# Cutoff priority:              2.521751007763e-06
# Nuclear repulsion energy:     380.9521862374014

memory 7 GB

molecule Dimer_0_125 {
  N            6.27981210      -4.25303372       0.19313865
  N            6.06870777      -2.28125697       1.80544317
  H            3.66871156      -5.64628941      -1.96684001
  H            0.69034521      -2.37545694      -0.42864236
  H            3.35917442       0.17650601       3.09265017
  H            7.35266782      -1.99461311       2.90680702
  C            3.77952586      -1.21508453       1.76858172
  C            2.38242998      -2.55505538       0.04607681
  C            4.01771468      -4.38410490      -0.88761863
--
  N            6.27981210      19.53483875     -12.60597640
  N            6.06870777      21.50661550     -10.99367188
  H            3.66871156      18.14158306     -14.76595506
  H            0.69034521      21.41241552     -13.22775741
  H            3.35917442      23.96437848      -9.70646488
  H            7.35266782      21.79325936      -9.89230803
  C            3.77952586      22.57278794     -11.03053333
  C            2.38242998      21.23281709     -12.75303823
  C            4.01771468      19.40376757     -13.68673368
units = au
no_com
no_reorient
}

set {
  e_convergence 10
  d_convergence 10
  scf_type df
  mp2_type df
  cc_type df
  freeze_core true
}

energy('sapt0/aug-cc-pvdz')

--------------------------------------------------------------------------

  //              Dimer HF             //
    Molecular point group: c1
  Charge       = 0
  Multiplicity = 1
  Basis Set: AUG-CC-PVDZ
    Blend: AUG-CC-PVDZ
  Basis Set: (AUG-CC-PVDZ AUX)
    Blend: AUG-CC-PVDZ-JKFIT
  @DF-RHF Final Energy:  -449.52463759722224
    Total Energy =                       -449.5246375972222950
  //            Monomer A HF           //
    Molecular point group: c1
  Multiplicity = 1
  Basis Set: AUG-CC-PVDZ
    Blend: AUG-CC-PVDZ
  Basis Set: (AUG-CC-PVDZ AUX)
    Blend: AUG-CC-PVDZ-JKFIT
  @DF-RHF Final Energy:  -224.76233952835969
    Total Energy =                       -224.7623395283596892
  //            Monomer B HF           //
    Molecular point group: c1

    Geometry (in Bohr), charge = 0, multiplicity = 1:

       Center              X                  Y                   Z               Mass
    ------------   -----------------  -----------------  -----------------  -----------------
      Gh(N)           6.279812100000    -4.253033720000     0.193138650000    14.003074004430
      Gh(N)           6.068707770000    -2.281256970000     1.805443170000    14.003074004430
      Gh(H)           3.668711560000    -5.646289410000    -1.966840010000     1.007825032230
      Gh(H)           0.690345210000    -2.375456940000    -0.428642360000     1.007825032230
      Gh(H)           3.359174420000     0.176506010000     3.092650170000     1.007825032230
      Gh(H)           7.352667820000    -1.994613110000     2.906807020000     1.007825032230
      Gh(C)           3.779525860000    -1.215084530000     1.768581720000    12.000000000000
      Gh(C)           2.382429980000    -2.555055380000     0.046076810000    12.000000000000
      Gh(C)           4.017714680000    -4.384104900000    -0.887618630000    12.000000000000
         N            6.279812100000    19.534838750000   -12.605976400000    14.003074004430
         N            6.068707770000    21.506615500000   -10.993671880000    14.003074004430
         H            3.668711560000    18.141583060000   -14.765955060000     1.007825032230
         H            0.690345210000    21.412415520000   -13.227757410000     1.007825032230
         H            3.359174420000    23.964378480000    -9.706464880000     1.007825032230
         H            7.352667820000    21.793259360000    -9.892308030000     1.007825032230
         C            3.779525860000    22.572787940000   -11.030533330000    12.000000000000
         C            2.382429980000    21.232817090000   -12.753038230000    12.000000000000
         C            4.017714680000    19.403767570000   -13.686733680000    12.000000000000

  Charge       = 0
  Multiplicity = 1
  Basis Set: AUG-CC-PVDZ
    Blend: AUG-CC-PVDZ
  Basis Set: (AUG-CC-PVDZ AUX)
    Blend: AUG-CC-PVDZ-JKFIT

    Orbital Energies [Eh]
    ---------------------

    Doubly Occupied:

       1A    -15.636223     2A    -15.592313     3A    -11.279894
       4A    -11.237784     5A    -11.209891     6A     -1.386922
       7A     -1.121901     8A     -1.066898     9A     -0.872768
      10A     -0.837061    11A     -0.757292    12A     -0.645746
      13A     -0.620834    14A     -0.609140    15A     -0.583920
      16A     -0.461404    17A     -0.370721    18A     -0.346048

  @DF-RHF Final Energy:  -224.76233952550294

   => Energetics <=

    Nuclear Repulsion Energy =            166.6240564786834852
    One-Electron Energy =                -633.4992734748240082
    Two-Electron Energy =                 242.1128774706375850
    Total Energy =                       -224.7623395255029379

  Dipole Moment: [D]
     X:    -1.0235      Y:     1.6055      Z:     1.4733     Total:     2.4075

    SAPT Results
  --------------------------------------------------------------------------------------------------------
    Electrostatics                  0.04147716 [mEh]       0.02602731 [kcal/mol]       0.10889827 [kJ/mol]
      Elst10,r                      0.04147716 [mEh]       0.02602731 [kcal/mol]       0.10889827 [kJ/mol]

    Exchange                        0.00000000 [mEh]       0.00000000 [kcal/mol]       0.00000001 [kJ/mol]
      Exch10                        0.00000000 [mEh]       0.00000000 [kcal/mol]       0.00000001 [kJ/mol]
      Exch10(S^2)                   0.00000000 [mEh]       0.00000000 [kcal/mol]       0.00000001 [kJ/mol]

    Induction                      -0.00002052 [mEh]      -0.00001288 [kcal/mol]      -0.00005388 [kJ/mol]
      Ind20,r                      -0.00012579 [mEh]      -0.00007894 [kcal/mol]      -0.00033027 [kJ/mol]
      Exch-Ind20,r                  0.00000001 [mEh]       0.00000000 [kcal/mol]       0.00000001 [kJ/mol]
      delta HF,r (2)                0.00010526 [mEh]       0.00006605 [kcal/mol]       0.00027637 [kJ/mol]

    Dispersion                     -0.00258060 [mEh]      -0.00161935 [kcal/mol]      -0.00677538 [kJ/mol]
      Disp20                       -0.00258060 [mEh]      -0.00161935 [kcal/mol]      -0.00677538 [kJ/mol]
      Exch-Disp20                   0.00000000 [mEh]       0.00000000 [kcal/mol]       0.00000000 [kJ/mol]
      Disp20 (SS)                  -0.00129030 [mEh]      -0.00080968 [kcal/mol]      -0.00338769 [kJ/mol]
      Disp20 (OS)                  -0.00129030 [mEh]      -0.00080968 [kcal/mol]      -0.00338769 [kJ/mol]
      Exch-Disp20 (SS)              0.00000000 [mEh]       0.00000000 [kcal/mol]       0.00000000 [kJ/mol]
      Exch-Disp20 (OS)              0.00000000 [mEh]       0.00000000 [kcal/mol]       0.00000000 [kJ/mol]

  Total HF                          0.04145664 [mEh]       0.02601443 [kcal/mol]       0.10884439 [kJ/mol]
  Total SAPT0                       0.03887604 [mEh]       0.02439508 [kcal/mol]       0.10206902 [kJ/mol]

  Special recipe for scaled SAPT0 (see Manual):
    Electrostatics sSAPT0           0.04147716 [mEh]       0.02602731 [kcal/mol]       0.10889827 [kJ/mol]
    Exchange sSAPT0                 0.00000000 [mEh]       0.00000000 [kcal/mol]       0.00000001 [kJ/mol]
    Induction sSAPT0               -0.00002052 [mEh]      -0.00001288 [kcal/mol]      -0.00005388 [kJ/mol]
    Dispersion sSAPT0              -0.00258060 [mEh]      -0.00161935 [kcal/mol]      -0.00677538 [kJ/mol]
  Total sSAPT0                      0.03887604 [mEh]       0.02439508 [kcal/mol]       0.10206902 [kJ/mol]
  --------------------------------------------------------------------------------------------------------

*** Psi4 exiting successfully. Buy a developer a beer!
