                               Psi4 1.4rc3

  ==> Input File <==

--------------------------------------------------------------------------
# PSI4 file produced by CrystaLattE

# Generated from:               pyrazole.xyz
# Psithon input for N-mer:      2mer-0+478
# Number of atoms per monomer:  [9, 9]
# Number of replicas:           1
# COM priority:                 1.203192777240e-05
# Minimum COM separations:      23.093
# Separation priority:          2.188516170637e-05
# Minimum monomer separations:  18.918
# Cutoff priority:              6.121619708201e-07
# Nuclear repulsion energy:     363.03933877989346

memory 7 GB

molecule Dimer_0_478 {
  N            6.27981210      -4.25303372       0.19313865
  N            6.06870777      -2.28125697       1.80544317
  H            3.66871156      -5.64628941      -1.96684001
  H            0.69034521      -2.37545694      -0.42864236
  H            3.35917442       0.17650601       3.09265017
  H            7.35266782      -1.99461311       2.90680702
  C            3.77952586      -1.21508453       1.76858172
  C            2.38242998      -2.55505538       0.04607681
  C            4.01771468      -4.38410490      -0.88761863
--
  N            2.79813836      33.38841992      27.18608831
  N            2.91700062      31.35051288      25.64891459
  H            5.47130109      35.78932988      27.90411866
  H            8.36593765      33.34679114      25.14898116
  H            5.42951358      29.63374213      23.24434485
  H            1.45459240      30.54053582      25.26314926
  C            5.19983702      31.02033721      24.61986574
  C            6.68282945      32.95000943      25.50978821
  C            5.12152412      34.33517724      27.10148616
units = au
no_com
no_reorient
}

set {
  e_convergence 10
  d_convergence 10
  scf_type df
  mp2_type df
  cc_type df
  freeze_core true
}

energy('sapt0/aug-cc-pvdz')

--------------------------------------------------------------------------

  //              Dimer HF             //
    Molecular point group: c1
  Charge       = 0
  Multiplicity = 1
  Basis Set: AUG-CC-PVDZ
    Blend: AUG-CC-PVDZ
  Basis Set: (AUG-CC-PVDZ AUX)
    Blend: AUG-CC-PVDZ-JKFIT
  @DF-RHF Final Energy:  -449.52475195166187
    Total Energy =                       -449.5247519516618695
  //            Monomer A HF           //
    Molecular point group: c1
  Multiplicity = 1
  Basis Set: AUG-CC-PVDZ
    Blend: AUG-CC-PVDZ
  Basis Set: (AUG-CC-PVDZ AUX)
    Blend: AUG-CC-PVDZ-JKFIT
  @DF-RHF Final Energy:  -224.76233952145571
    Total Energy =                       -224.7623395214557149
  //            Monomer B HF           //
    Molecular point group: c1

    Geometry (in Bohr), charge = 0, multiplicity = 1:

       Center              X                  Y                   Z               Mass
    ------------   -----------------  -----------------  -----------------  -----------------
      Gh(N)           6.279812100000    -4.253033720000     0.193138650000    14.003074004430
      Gh(N)           6.068707770000    -2.281256970000     1.805443170000    14.003074004430
      Gh(H)           3.668711560000    -5.646289410000    -1.966840010000     1.007825032230
      Gh(H)           0.690345210000    -2.375456940000    -0.428642360000     1.007825032230
      Gh(H)           3.359174420000     0.176506010000     3.092650170000     1.007825032230
      Gh(H)           7.352667820000    -1.994613110000     2.906807020000     1.007825032230
      Gh(C)           3.779525860000    -1.215084530000     1.768581720000    12.000000000000
      Gh(C)           2.382429980000    -2.555055380000     0.046076810000    12.000000000000
      Gh(C)           4.017714680000    -4.384104900000    -0.887618630000    12.000000000000
         N            2.798138360000    33.388419920000    27.186088310000    14.003074004430
         N            2.917000620000    31.350512880000    25.648914590000    14.003074004430
         H            5.471301090000    35.789329880000    27.904118660000     1.007825032230
         H            8.365937650000    33.346791140000    25.148981160000     1.007825032230
         H            5.429513580000    29.633742130000    23.244344850000     1.007825032230
         H            1.454592400000    30.540535820000    25.263149260000     1.007825032230
         C            5.199837020000    31.020337210000    24.619865740000    12.000000000000
         C            6.682829450000    32.950009430000    25.509788210000    12.000000000000
         C            5.121524120000    34.335177240000    27.101486160000    12.000000000000

  Charge       = 0
  Multiplicity = 1
  Basis Set: AUG-CC-PVDZ
    Blend: AUG-CC-PVDZ
  Basis Set: (AUG-CC-PVDZ AUX)
    Blend: AUG-CC-PVDZ-JKFIT

    Orbital Energies [Eh]
    ---------------------

    Doubly Occupied:

       1A    -15.636233     2A    -15.592291     3A    -11.279903
       4A    -11.237759     5A    -11.209884     6A     -1.387001
       7A     -1.121894     8A     -1.066928     9A     -0.872759
      10A     -0.837039    11A     -0.757272    12A     -0.645745
      13A     -0.620828    14A     -0.609177    15A     -0.583905
      16A     -0.461413    17A     -0.370715    18A     -0.346055

  @DF-RHF Final Energy:  -224.76243506157732

   => Energetics <=

    Nuclear Repulsion Energy =            166.6286028690489047
    One-Electron Energy =                -633.5084735253478812
    Two-Electron Energy =                 242.1174355947216554
    Total Energy =                       -224.7624350615773210

  Dipole Moment: [D]
     X:     0.7394      Y:    -1.4336      Z:    -1.7871     Total:     2.4074

    SAPT Results
  --------------------------------------------------------------------------------------------------------
    Electrostatics                  0.02261719 [mEh]       0.01419250 [kcal/mol]       0.05938142 [kJ/mol]
      Elst10,r                      0.02261719 [mEh]       0.01419250 [kcal/mol]       0.05938142 [kJ/mol]

    Exchange                        0.00000000 [mEh]       0.00000000 [kcal/mol]       0.00000000 [kJ/mol]
      Exch10                        0.00000000 [mEh]       0.00000000 [kcal/mol]       0.00000000 [kJ/mol]
      Exch10(S^2)                   0.00000000 [mEh]       0.00000000 [kcal/mol]       0.00000000 [kJ/mol]

    Induction                       0.00001418 [mEh]       0.00000890 [kcal/mol]       0.00003724 [kJ/mol]
      Ind20,r                      -0.00003007 [mEh]      -0.00001887 [kcal/mol]      -0.00007894 [kJ/mol]
      Exch-Ind20,r                  0.00000000 [mEh]       0.00000000 [kcal/mol]       0.00000000 [kJ/mol]
      delta HF,r (2)                0.00004425 [mEh]       0.00002777 [kcal/mol]       0.00011618 [kJ/mol]

    Dispersion                     -0.00019527 [mEh]      -0.00012254 [kcal/mol]      -0.00051269 [kJ/mol]
      Disp20                       -0.00019527 [mEh]      -0.00012254 [kcal/mol]      -0.00051269 [kJ/mol]
      Exch-Disp20                   0.00000000 [mEh]       0.00000000 [kcal/mol]       0.00000000 [kJ/mol]
      Disp20 (SS)                  -0.00009764 [mEh]      -0.00006127 [kcal/mol]      -0.00025635 [kJ/mol]
      Disp20 (OS)                  -0.00009764 [mEh]      -0.00006127 [kcal/mol]      -0.00025635 [kJ/mol]
      Exch-Disp20 (SS)              0.00000000 [mEh]       0.00000000 [kcal/mol]       0.00000000 [kJ/mol]
      Exch-Disp20 (OS)              0.00000000 [mEh]       0.00000000 [kcal/mol]       0.00000000 [kJ/mol]

  Total HF                          0.02263137 [mEh]       0.01420140 [kcal/mol]       0.05941866 [kJ/mol]
  Total SAPT0                       0.02243610 [mEh]       0.01407886 [kcal/mol]       0.05890596 [kJ/mol]

  Special recipe for scaled SAPT0 (see Manual):
    Electrostatics sSAPT0           0.02261719 [mEh]       0.01419250 [kcal/mol]       0.05938142 [kJ/mol]
    Exchange sSAPT0                 0.00000000 [mEh]       0.00000000 [kcal/mol]       0.00000000 [kJ/mol]
    Induction sSAPT0                0.00001418 [mEh]       0.00000890 [kcal/mol]       0.00003724 [kJ/mol]
    Dispersion sSAPT0              -0.00019527 [mEh]      -0.00012254 [kcal/mol]      -0.00051269 [kJ/mol]
  Total sSAPT0                      0.02243610 [mEh]       0.01407886 [kcal/mol]       0.05890596 [kJ/mol]
  --------------------------------------------------------------------------------------------------------

*** Psi4 exiting successfully. Buy a developer a beer!
