                               Psi4 1.4rc3

  ==> Input File <==

--------------------------------------------------------------------------
# PSI4 file produced by CrystaLattE

# Generated from:               pyrazole.xyz
# Psithon input for N-mer:      2mer-0+13
# Number of atoms per monomer:  [9, 9]
# Number of replicas:           2
# COM priority:                 2.899398620472e-04
# Minimum COM separations:      7.995
# Separation priority:          1.192758421556e-03
# Minimum monomer separations:  4.990
# Cutoff priority:              1.264940182728e-04
# Nuclear repulsion energy:     419.5511885545096

memory 7 GB

molecule Dimer_0_13 {
  N            6.27981210      -4.25303372       0.19313865
  N            6.06870777      -2.28125697       1.80544317
  H            3.66871156      -5.64628941      -1.96684001
  H            0.69034521      -2.37545694      -0.42864236
  H            3.35917442       0.17650601       3.09265017
  H            7.35266782      -1.99461311       2.90680702
  C            3.77952586      -1.21508453       1.76858172
  C            2.38242998      -2.55505538       0.04607681
  C            4.01771468      -4.38410490      -0.88761863
--
  N           -1.45861638       7.64090252       6.25249569
  N           -1.66972071       9.61267926       4.64019117
  H           -4.06971692       6.24764682       8.41247435
  H           -7.04808328       9.51847929       6.87427670
  H           -4.37925406      12.07044225       3.35298417
  H           -0.38576066       9.89932313       3.53882732
  C           -3.95890263      10.67885171       4.67705262
  C           -5.35599851       9.33888085       6.39955752
  C           -3.72071380       7.50983134       7.33325297
units = au
no_com
no_reorient
}

set {
  e_convergence 10
  d_convergence 10
  scf_type df
  mp2_type df
  cc_type df
  freeze_core true
}

energy('sapt0/aug-cc-pvdz')

--------------------------------------------------------------------------

  //              Dimer HF             //
    Molecular point group: c1
  Charge       = 0
  Multiplicity = 1
  Basis Set: AUG-CC-PVDZ
    Blend: AUG-CC-PVDZ
  Basis Set: (AUG-CC-PVDZ AUX)
    Blend: AUG-CC-PVDZ-JKFIT
  @DF-RHF Final Energy:  -449.52555792151168
    Total Energy =                       -449.5255579215116768
  //            Monomer A HF           //
    Molecular point group: c1
  Multiplicity = 1
  Basis Set: AUG-CC-PVDZ
    Blend: AUG-CC-PVDZ
  Basis Set: (AUG-CC-PVDZ AUX)
    Blend: AUG-CC-PVDZ-JKFIT
  @DF-RHF Final Energy:  -224.76238559569177
    Total Energy =                       -224.7623855956917680
  //            Monomer B HF           //
    Molecular point group: c1

    Geometry (in Bohr), charge = 0, multiplicity = 1:

       Center              X                  Y                   Z               Mass
    ------------   -----------------  -----------------  -----------------  -----------------
      Gh(N)           6.279812100000    -4.253033720000     0.193138650000    14.003074004430
      Gh(N)           6.068707770000    -2.281256970000     1.805443170000    14.003074004430
      Gh(H)           3.668711560000    -5.646289410000    -1.966840010000     1.007825032230
      Gh(H)           0.690345210000    -2.375456940000    -0.428642360000     1.007825032230
      Gh(H)           3.359174420000     0.176506010000     3.092650170000     1.007825032230
      Gh(H)           7.352667820000    -1.994613110000     2.906807020000     1.007825032230
      Gh(C)           3.779525860000    -1.215084530000     1.768581720000    12.000000000000
      Gh(C)           2.382429980000    -2.555055380000     0.046076810000    12.000000000000
      Gh(C)           4.017714680000    -4.384104900000    -0.887618630000    12.000000000000
         N           -1.458616380000     7.640902520000     6.252495690000    14.003074004430
         N           -1.669720710000     9.612679260000     4.640191170000    14.003074004430
         H           -4.069716920000     6.247646820000     8.412474350000     1.007825032230
         H           -7.048083280000     9.518479290000     6.874276700000     1.007825032230
         H           -4.379254060000    12.070442250000     3.352984170000     1.007825032230
         H           -0.385760660000     9.899323130000     3.538827320000     1.007825032230
         C           -3.958902630000    10.678851710000     4.677052620000    12.000000000000
         C           -5.355998510000     9.338880850000     6.399557520000    12.000000000000
         C           -3.720713800000     7.509831340000     7.333252970000    12.000000000000

  Charge       = 0
  Multiplicity = 1
  Basis Set: AUG-CC-PVDZ
    Blend: AUG-CC-PVDZ
  Basis Set: (AUG-CC-PVDZ AUX)
    Blend: AUG-CC-PVDZ-JKFIT

    Orbital Energies [Eh]
    ---------------------

    Doubly Occupied:

       1A    -15.636228     2A    -15.592347     3A    -11.279897
       4A    -11.237791     5A    -11.209886     6A     -1.386929
       7A     -1.121911     8A     -1.066904     9A     -0.872776
      10A     -0.837070    11A     -0.757299    12A     -0.645753
      13A     -0.620842    14A     -0.609142    15A     -0.583929
      16A     -0.461417    17A     -0.370724    18A     -0.346055

  @DF-RHF Final Energy:  -224.76238738025305

   => Energetics <=

    Nuclear Repulsion Energy =            166.6240563471112637
    One-Electron Energy =                -633.4990877756220016
    Two-Electron Energy =                 242.1126440482576925
    Total Energy =                       -224.7623873802530454

  Dipole Moment: [D]
     X:    -1.0220      Y:     1.6044      Z:    -1.4740     Total:     2.4066

    SAPT Results
  --------------------------------------------------------------------------------------------------------
    Electrostatics                 -0.76142507 [mEh]      -0.47780145 [kcal/mol]      -1.99912125 [kJ/mol]
      Elst10,r                     -0.76142507 [mEh]      -0.47780145 [kcal/mol]      -1.99912125 [kJ/mol]

    Exchange                        0.00093880 [mEh]       0.00058911 [kcal/mol]       0.00246482 [kJ/mol]
      Exch10                        0.00093880 [mEh]       0.00058911 [kcal/mol]       0.00246482 [kJ/mol]
      Exch10(S^2)                   0.00093880 [mEh]       0.00058910 [kcal/mol]       0.00246481 [kJ/mol]

    Induction                      -0.02445929 [mEh]      -0.01534844 [kcal/mol]      -0.06421786 [kJ/mol]
      Ind20,r                      -0.02416072 [mEh]      -0.01516108 [kcal/mol]      -0.06343395 [kJ/mol]
      Exch-Ind20,r                  0.00015930 [mEh]       0.00009996 [kcal/mol]       0.00041823 [kJ/mol]
      delta HF,r (2)               -0.00045787 [mEh]      -0.00028732 [kcal/mol]      -0.00120215 [kJ/mol]

    Dispersion                     -0.15488233 [mEh]      -0.09719013 [kcal/mol]      -0.40664349 [kJ/mol]
      Disp20                       -0.15504781 [mEh]      -0.09729397 [kcal/mol]      -0.40707798 [kJ/mol]
      Exch-Disp20                   0.00016549 [mEh]       0.00010384 [kcal/mol]       0.00043448 [kJ/mol]
      Disp20 (SS)                  -0.07752391 [mEh]      -0.04864699 [kcal/mol]      -0.20353899 [kJ/mol]
      Disp20 (OS)                  -0.07752391 [mEh]      -0.04864699 [kcal/mol]      -0.20353899 [kJ/mol]
      Exch-Disp20 (SS)              0.00012346 [mEh]       0.00007747 [kcal/mol]       0.00032415 [kJ/mol]
      Exch-Disp20 (OS)              0.00004202 [mEh]       0.00002637 [kcal/mol]       0.00011033 [kJ/mol]

  Total HF                         -0.78494557 [mEh]      -0.49256078 [kcal/mol]      -2.06087430 [kJ/mol]
  Total SAPT0                      -0.93982789 [mEh]      -0.58975091 [kcal/mol]      -2.46751780 [kJ/mol]

  Special recipe for scaled SAPT0 (see Manual):
    Electrostatics sSAPT0          -0.76142507 [mEh]      -0.47780145 [kcal/mol]      -1.99912125 [kJ/mol]
    Exchange sSAPT0                 0.00093880 [mEh]       0.00058911 [kcal/mol]       0.00246482 [kJ/mol]
    Induction sSAPT0               -0.02445929 [mEh]      -0.01534844 [kcal/mol]      -0.06421786 [kJ/mol]
    Dispersion sSAPT0              -0.15488233 [mEh]      -0.09719013 [kcal/mol]      -0.40664349 [kJ/mol]
  Total sSAPT0                     -0.93982789 [mEh]      -0.58975091 [kcal/mol]      -2.46751780 [kJ/mol]
  --------------------------------------------------------------------------------------------------------

*** Psi4 exiting successfully. Buy a developer a beer!
