                               Psi4 1.4rc3

  ==> Input File <==

--------------------------------------------------------------------------
# PSI4 file produced by CrystaLattE

# Generated from:               pyrazole.xyz
# Psithon input for N-mer:      2mer-0+70
# Number of atoms per monomer:  [9, 9]
# Number of replicas:           1
# COM priority:                 1.261073310874e-04
# Minimum COM separations:      10.552
# Separation priority:          2.882705725181e-04
# Minimum monomer separations:  8.011
# Cutoff priority:              1.904292897050e-05
# Nuclear repulsion energy:     398.1239969273594

memory 7 GB

molecule Dimer_0_70 {
  N            6.27981210      -4.25303372       0.19313865
  N            6.06870777      -2.28125697       1.80544317
  H            3.66871156      -5.64628941      -1.96684001
  H            0.69034521      -2.37545694      -0.42864236
  H            3.35917442       0.17650601       3.09265017
  H            7.35266782      -1.99461311       2.90680702
  C            3.77952586      -1.21508453       1.76858172
  C            2.38242998      -2.55505538       0.04607681
  C            4.01771468      -4.38410490      -0.88761863
--
  N            2.79813836       2.40090997      20.78653078
  N            2.91700062       4.43881700      19.24935707
  H            5.47130109       0.00000000      21.50456114
  H            8.36593765       2.44253874      18.74942363
  H            5.42951358       6.15558776      16.84478732
  H            1.45459240       5.24879406      18.86359174
  C            5.19983702       4.76899267      18.22030822
  C            6.68282945       2.83932046      19.11023069
  C            5.12152412       1.45415264      20.70192863
units = au
no_com
no_reorient
}

set {
  e_convergence 10
  d_convergence 10
  scf_type df
  mp2_type df
  cc_type df
  freeze_core true
}

energy('sapt0/aug-cc-pvdz')

--------------------------------------------------------------------------

  //              Dimer HF             //
    Molecular point group: c1
  Charge       = 0
  Multiplicity = 1
  Basis Set: AUG-CC-PVDZ
    Blend: AUG-CC-PVDZ
  Basis Set: (AUG-CC-PVDZ AUX)
    Blend: AUG-CC-PVDZ-JKFIT
  @DF-RHF Final Energy:  -449.52467308082373
    Total Energy =                       -449.5246730808237317
  //            Monomer A HF           //
    Molecular point group: c1
  Multiplicity = 1
  Basis Set: AUG-CC-PVDZ
    Blend: AUG-CC-PVDZ
  Basis Set: (AUG-CC-PVDZ AUX)
    Blend: AUG-CC-PVDZ-JKFIT
  @DF-RHF Final Energy:  -224.76234428294578
    Total Energy =                       -224.7623442829457758
  //            Monomer B HF           //
    Molecular point group: c1

    Geometry (in Bohr), charge = 0, multiplicity = 1:

       Center              X                  Y                   Z               Mass
    ------------   -----------------  -----------------  -----------------  -----------------
      Gh(N)           6.279812100000    -4.253033720000     0.193138650000    14.003074004430
      Gh(N)           6.068707770000    -2.281256970000     1.805443170000    14.003074004430
      Gh(H)           3.668711560000    -5.646289410000    -1.966840010000     1.007825032230
      Gh(H)           0.690345210000    -2.375456940000    -0.428642360000     1.007825032230
      Gh(H)           3.359174420000     0.176506010000     3.092650170000     1.007825032230
      Gh(H)           7.352667820000    -1.994613110000     2.906807020000     1.007825032230
      Gh(C)           3.779525860000    -1.215084530000     1.768581720000    12.000000000000
      Gh(C)           2.382429980000    -2.555055380000     0.046076810000    12.000000000000
      Gh(C)           4.017714680000    -4.384104900000    -0.887618630000    12.000000000000
         N            2.798138360000     2.400909970000    20.786530780000    14.003074004430
         N            2.917000620000     4.438817000000    19.249357070000    14.003074004430
         H            5.471301090000     0.000000000000    21.504561140000     1.007825032230
         H            8.365937650000     2.442538740000    18.749423630000     1.007825032230
         H            5.429513580000     6.155587760000    16.844787320000     1.007825032230
         H            1.454592400000     5.248794060000    18.863591740000     1.007825032230
         C            5.199837020000     4.768992670000    18.220308220000    12.000000000000
         C            6.682829450000     2.839320460000    19.110230690000    12.000000000000
         C            5.121524120000     1.454152640000    20.701928630000    12.000000000000

  Charge       = 0
  Multiplicity = 1
  Basis Set: AUG-CC-PVDZ
    Blend: AUG-CC-PVDZ
  Basis Set: (AUG-CC-PVDZ AUX)
    Blend: AUG-CC-PVDZ-JKFIT

    Orbital Energies [Eh]
    ---------------------

    Doubly Occupied:

       1A    -15.636234     2A    -15.592294     3A    -11.279906
       4A    -11.237760     5A    -11.209887     6A     -1.387003
       7A     -1.121895     8A     -1.066930     9A     -0.872762
      10A     -0.837041    11A     -0.757274    12A     -0.645747
      13A     -0.620830    14A     -0.609178    15A     -0.583908
      16A     -0.461416    17A     -0.370716    18A     -0.346057

  @DF-RHF Final Energy:  -224.76244243817632

   => Energetics <=

    Nuclear Repulsion Energy =            166.6286030133970826
    One-Electron Energy =                -633.5084162020195890
    Two-Electron Energy =                 242.1173707504461845
    Total Energy =                       -224.7624424381763220

  Dipole Moment: [D]
     X:     0.7394      Y:     1.4333      Z:    -1.7871     Total:     2.4073

    SAPT Results
  --------------------------------------------------------------------------------------------------------
    Electrostatics                  0.11550067 [mEh]       0.07247776 [kcal/mol]       0.30324696 [kJ/mol]
      Elst10,r                      0.11550067 [mEh]       0.07247776 [kcal/mol]       0.30324696 [kJ/mol]

    Exchange                        0.00000038 [mEh]       0.00000024 [kcal/mol]       0.00000099 [kJ/mol]
      Exch10                        0.00000038 [mEh]       0.00000024 [kcal/mol]       0.00000099 [kJ/mol]
      Exch10(S^2)                   0.00000038 [mEh]       0.00000024 [kcal/mol]       0.00000099 [kJ/mol]

    Induction                      -0.00186074 [mEh]      -0.00116763 [kcal/mol]      -0.00488538 [kJ/mol]
      Ind20,r                      -0.00193344 [mEh]      -0.00121325 [kcal/mol]      -0.00507625 [kJ/mol]
      Exch-Ind20,r                  0.00000488 [mEh]       0.00000306 [kcal/mol]       0.00001280 [kJ/mol]
      delta HF,r (2)                0.00006782 [mEh]       0.00004256 [kcal/mol]       0.00017806 [kJ/mol]

    Dispersion                     -0.01957097 [mEh]      -0.01228097 [kcal/mol]      -0.05138359 [kJ/mol]
      Disp20                       -0.01957170 [mEh]      -0.01228143 [kcal/mol]      -0.05138548 [kJ/mol]
      Exch-Disp20                   0.00000072 [mEh]       0.00000045 [kcal/mol]       0.00000190 [kJ/mol]
      Disp20 (SS)                  -0.00978585 [mEh]      -0.00614071 [kcal/mol]      -0.02569274 [kJ/mol]
      Disp20 (OS)                  -0.00978585 [mEh]      -0.00614071 [kcal/mol]      -0.02569274 [kJ/mol]
      Exch-Disp20 (SS)              0.00000062 [mEh]       0.00000039 [kcal/mol]       0.00000162 [kJ/mol]
      Exch-Disp20 (OS)              0.00000011 [mEh]       0.00000007 [kcal/mol]       0.00000028 [kJ/mol]

  Total HF                          0.11364030 [mEh]       0.07131036 [kcal/mol]       0.29836256 [kJ/mol]
  Total SAPT0                       0.09406932 [mEh]       0.05902939 [kcal/mol]       0.24697898 [kJ/mol]

  Special recipe for scaled SAPT0 (see Manual):
    Electrostatics sSAPT0           0.11550067 [mEh]       0.07247776 [kcal/mol]       0.30324696 [kJ/mol]
    Exchange sSAPT0                 0.00000038 [mEh]       0.00000024 [kcal/mol]       0.00000099 [kJ/mol]
    Induction sSAPT0               -0.00186074 [mEh]      -0.00116763 [kcal/mol]      -0.00488538 [kJ/mol]
    Dispersion sSAPT0              -0.01957097 [mEh]      -0.01228097 [kcal/mol]      -0.05138359 [kJ/mol]
  Total sSAPT0                      0.09406932 [mEh]       0.05902939 [kcal/mol]       0.24697898 [kJ/mol]
  --------------------------------------------------------------------------------------------------------

*** Psi4 exiting successfully. Buy a developer a beer!
